LAMMPS data file via write_data, version 7 Aug 2019, timestep = 1000000

81 atoms
4 atom types
54 bonds
2  bond types
20  angles
7  angle types
-2.68645480172 6.758155  xlo xhi
-5.19722622305 20.905162  ylo yhi
-9.372 -1.73255  zlo zhi

Masses

1 12.0112
2 12.0112
3 12.0112
4 1.00797

Atoms #full

1 1 1 0.53 0.063648 1.531486 -6.9836
2 1 1 -0.106 0.080886 1.726818 -5.44245
3 1 1 -0.106 -0.272493 3.786116 -5.0011
4 1 1 0.53 0.391342859077 -0.93850467575 -6.9836
5 1 1 -0.106 0.436696294291 -1.08296029627 -5.44245
6 1 1 -0.106 1.18239306342 -1.15342207569 -5.0011
7 1 1 0.53 -0.454990859077 -0.59298132425 -6.9836
8 1 1 -0.106 -0.517582294291 -0.643857703734 -5.44245
9 1 1 -0.106 -0.909900063416 -2.63269392431 -5.0011
10 2 1 0.53 2.718963 15.094592 -7.9547
11 2 1 -0.106 2.77797 15.225506 -6.41225
12 2 1 -0.106 3.497988 18.33835 -5.97285
13 2 1 0.53 2.39656814275 12.9984173117 -7.9547
14 2 1 -0.106 2.40323765784 12.7727958415 -6.41225
15 2 1 -0.106 2.90334257221 9.26200738456 -5.97285
16 2 1 0.53 1.97856885725 14.9215906883 -7.9547
17 2 1 -0.106 1.91289234216 15.0162981585 -6.41225
18 2 1 -0.106 0.692769427785 15.4142426154 -5.97285
19 3 1 0.53 4.462653 5.544104 -3.81225
20 3 1 -0.106 4.460001 5.384098 -2.2698
21 3 1 -0.106 5.004324 3.877548 -1.82455
22 3 1 0.53 4.01665583798 7.50217368257 -3.81225
23 3 1 -0.106 3.9737703751 7.58937508573 -2.2698
24 3 1 -0.106 3.28533211413 6.8651778379 -1.82455
25 3 1 0.53 4.78069116202 7.73372231743 -3.81225
26 3 1 -0.106 4.8262286249 7.80652691427 -2.2698
27 3 1 -0.106 4.97034388587 10.0372741621 -1.82455
28 1 2 0 0.450177 3.779882 -7.40285
29 1 2 0.53 -0.674271 0.604698 -7.2969
30 1 2 0.53 0.820794 2.749194 -5.1207
31 1 2 0.53 0.100113 5.9223 -5.5289
32 1 2 0.53 -1.02765 2.81569 -5.21365
33 1 2 0.53 -0.163098 4.29107 -3.91235
34 1 2 0.53 0.819335538888 -3.11186993577 -7.40285
35 1 2 0.53 0.504220379228 1.52784500248 -7.2969
36 1 2 0.53 0.349236316904 -3.60250277686 -5.1207
37 1 2 0.53 1.58634180172 -3.23288971915 -5.5289
38 1 2 0.53 1.29183191187 1.38153622305 -5.21365
39 1 2 0.53 1.26722005019 -1.70283320589 -3.91235
40 1 2 0.53 -1.26951253889 -0.668012064226 -7.40285
41 1 2 0.53 0.170050620772 -2.13254300248 -7.2969
42 1 2 0.53 -1.1700303169 0.853308776861 -5.1207
43 1 2 0.53 -1.68645480172 -2.68941028085 -5.5289
44 1 2 0.53 -0.264181911871 -4.19722622305 -5.21365
45 1 2 0.53 -1.10412205019 -2.58823679411 -3.91235
46 2 2 0.53 3.430362 15.944494 -8.372
47 2 2 0.53 2.484261 16.638546 -8.26995
48 2 2 0.53 3.046485 13.772984 -6.0853
49 2 2 0.53 4.1769 19.109288 -6.48635
50 2 2 0.53 3.25533 19.905162 -6.2062
51 2 2 0.53 3.645837 18.467186 -4.88085
52 2 2 0.53 2.27570615341 10.642494665 -8.372
53 2 2 0.53 2.94053105088 12.863498991 -8.26995
54 2 2 0.53 1.86763194278 12.7702185219 -6.0853
55 2 2 0.53 2.77690543886 7.03374717656 -6.48635
56 2 2 0.53 3.45759940362 9.13725527336 -6.2062
57 2 2 0.53 2.86501691246 8.7962784086 -4.88085
58 2 2 0.53 1.38803184659 16.427611335 -8.372
59 2 2 0.53 1.66930794912 13.512555009 -8.26995
60 2 2 0.53 2.17998305722 16.4713974781 -6.0853
61 2 2 0.53 0.14029456114 16.8715648234 -6.48635
62 2 2 0.53 0.381170596382 13.9721827266 -6.2062
63 2 2 0.53 0.583246087537 15.7511355914 -4.88085
64 3 2 0.53 4.199442 3.31441 -4.22825
65 3 2 0.53 5.201898 6.869868 -4.12815
66 3 2 0.53 3.726723 3.960668 -1.94285
67 3 2 0.53 4.745754 1.747598 -2.34
68 3 2 0.53 5.758155 5.259418 -2.04815
69 3 2 0.53 4.929405 3.39753 -0.73255
70 3 2 0.53 3.53217173176 9.33146219583 -4.22825
71 3 2 0.53 4.01335688763 4.83273680276 -4.12815
72 3 2 0.53 3.94709960784 10.2914485584 -1.94285
73 3 2 0.53 2.82608790035 8.63199714564 -2.34
74 3 2 0.53 3.29024288453 4.12809674074 -2.04815
75 3 2 0.53 3.19015722547 7.30854172707 -0.73255
76 3 2 0.53 5.52838626824 8.13412780417 -4.22825
77 3 2 0.53 4.04474511237 9.07739519724 -4.12815
78 3 2 0.53 5.58617739216 6.52788344157 -1.94285
79 3 2 0.53 5.68815809965 10.4004048544 -2.34
80 3 2 0.53 4.21160211547 11.3924852593 -2.04815
81 3 2 0.53 5.14043777453 10.0739282729 -0.73255


Bonds

1 1 1 2
2 1 4 5
3 1 4 7
4 1 5 6
5 1 5 8
6 1 7 8
7 1 10 11
8 1 10 16
9 1 11 17
10 1 13 14
11 1 16 17
12 1 17 18
13 1 19 20
14 1 22 23
15 1 22 25
16 1 23 24
17 1 23 26
18 1 25 26
19 2 63 18
20 2 64 19
21 2 66 22
22 2 66 24
23 2 69 30
24 2 72 36
25 2 75 42
26 2 78 48
27 2 79 38


Angles

1 1 5 4 7
2 1 4 5 6
3 1 4 5 8
4 1 6 5 8
5 1 4 7 8
6 1 5 8 7
7 1 11 10 16
8 1 10 11 17
9 1 10 16 17
10 1 11 17 16
11 1 11 17 18
12 1 16 17 18
13 1 23 22 25
14 1 22 23 24
15 1 22 23 26
16 1 24 23 26
17 1 22 25 26
18 1 23 26 25
19 1 22 39 24
20 1 45 54 54
