LAMMPS data file via write_data, version 7 Aug 2019, timestep = 1000000

432 atoms
4 atom types
288 bonds
2  bond types
374  angles
7  angle types
-7.398681 10.506825  xlo xhi
-11.064058 31.844058  ylo yhi
-3.91550877238 9.87335661044  zlo zhi

Masses

1 12.0112
2 12.0112
3 12.0112
4 1.00797

Atoms #full

1 1 1 0.53 -0.482001 4.760698 1.36272887071
2 1 1 -0.106 -0.507195 3.308176 1.86941668912
3 1 1 -0.106 -0.676923 3.328956 3.37778844144
4 1 1 0.53 -2.046681 1.223942 3.49878042572
5 1 1 -0.106 -0.759798 1.928384 4.00599968914
6 1 1 -0.106 -0.692172 1.774612 5.51507108768
7 1 1 0.53 1.839825 1.656166 5.63874841658
8 1 1 -0.106 0.578136 2.402168 6.14421430392
9 1 1 -0.106 0.680238 2.537238 7.65283577851
10 1 1 0.53 -0.482001 -4.760698 -1.84269933428
11 1 1 -0.106 -0.507195 -3.308176 -1.33601151588
12 1 1 -0.106 -0.676923 -3.328956 0.172360236447
13 1 1 0.53 -2.046681 -1.223942 0.293352220721
14 1 1 -0.106 -0.759798 -1.928384 0.800571484142
15 1 1 -0.106 -0.692172 -1.774612 2.30964288268
16 1 1 0.53 1.839825 -1.656166 2.43332021159
17 1 1 -0.106 0.578136 -2.402168 2.93878609892
18 1 1 -0.106 0.680238 -2.537238 4.44740757351
19 1 1 0.53 -3.797001 -5.629302 1.89913358976
20 1 1 -0.106 -3.822195 -7.081824 2.40582140817
21 1 1 -0.106 -3.991923 -7.061044 3.91419316049
22 1 1 0.53 -5.361681 -9.166058 4.03518514476
23 1 1 -0.106 -4.074798 -8.461616 4.54240440818
24 1 1 -0.106 -4.007172 -8.615388 6.05147580673
25 1 1 0.53 -1.475175 -8.733834 6.17515313563
26 1 1 -0.106 -2.736864 -7.987832 6.68061902297
27 1 1 -0.106 -2.634762 -7.852762 8.18924049756
28 1 1 0.53 -3.797001 5.629302 -1.30629461524
29 1 1 -0.106 -3.822195 7.081824 -0.799606796829
30 1 1 -0.106 -3.991923 7.061044 0.708764955495
31 1 1 0.53 -5.361681 9.166058 0.829756939768
32 1 1 -0.106 -4.074798 8.461616 1.33697620319
33 1 1 -0.106 -4.007172 8.615388 2.84604760173
34 1 1 0.53 -1.475175 8.733834 2.96972493063
35 1 1 -0.106 -2.736864 7.987832 3.47519081797
36 1 1 -0.106 -2.634762 7.852762 4.98381229256
37 2 1 0.53 6.147999 4.760698 0.289919432617
38 2 1 -0.106 6.122805 3.308176 0.796607251026
39 2 1 -0.106 5.953077 3.328956 2.30497900335
40 2 1 0.53 4.583319 1.223942 2.42597098762
41 2 1 -0.106 5.870202 1.928384 2.93319025104
42 2 1 -0.106 5.937828 1.774612 4.44226164958
43 2 1 0.53 8.469825 1.656166 4.56593897849
44 2 1 -0.106 7.208136 2.402168 5.07140486583
45 2 1 -0.106 7.310238 2.537238 6.58002634042
46 2 1 0.53 6.147999 -4.760698 -2.91550877238
47 2 1 -0.106 6.122805 -3.308176 -2.40882095397
48 2 1 -0.106 5.953077 -3.328956 -0.900449201647
49 2 1 0.53 4.583319 -1.223942 -0.779457217374
50 2 1 -0.106 5.870202 -1.928384 -0.272237953953
51 2 1 -0.106 5.937828 -1.774612 1.23683344459
52 2 1 0.53 8.469825 -1.656166 1.36051077349
53 2 1 -0.106 7.208136 -2.402168 1.86597666083
54 2 1 -0.106 7.310238 -2.537238 3.37459813542
55 2 1 0.53 2.832999 -5.629302 0.826324151665
56 2 1 -0.106 2.807805 -7.081824 1.33301197007
57 2 1 -0.106 2.638077 -7.061044 2.8413837224
58 2 1 0.53 1.268319 -9.166058 2.96237570667
59 2 1 -0.106 2.555202 -8.461616 3.46959497009
60 2 1 -0.106 2.622828 -8.615388 4.97866636863
61 2 1 0.53 5.154825 -8.733834 5.10234369753
62 2 1 -0.106 3.893136 -7.987832 5.60780958487
63 2 1 -0.106 3.995238 -7.852762 7.11643105946
64 2 1 0.53 2.832999 5.629302 -2.37910405333
65 2 1 -0.106 2.807805 7.081824 -1.87241623492
66 2 1 -0.106 2.638077 7.061044 -0.3640444826
67 2 1 0.53 1.268319 9.166058 -0.243052498326
68 2 1 -0.106 2.555202 8.461616 0.264166765095
69 2 1 -0.106 2.622828 8.615388 1.77323816364
70 2 1 0.53 5.154825 8.733834 1.89691549254
71 2 1 -0.106 3.893136 7.987832 2.40238137988
72 2 1 -0.106 3.995238 7.852762 3.91100285447
73 3 1 0.53 -0.482001 25.540698 1.36272887071
74 3 1 -0.106 -0.507195 24.088176 1.86941668912
75 3 1 -0.106 -0.676923 24.108956 3.37778844144
76 3 1 0.53 -2.046681 22.003942 3.49878042572
77 3 1 -0.106 -0.759798 22.708384 4.00599968914
78 3 1 -0.106 -0.692172 22.554612 5.51507108768
79 3 1 0.53 1.839825 22.436166 5.63874841658
80 3 1 -0.106 0.578136 23.182168 6.14421430392
81 3 1 -0.106 0.680238 23.317238 7.65283577851
82 3 1 0.53 -0.482001 16.019302 -1.84269933428
83 3 1 -0.106 -0.507195 17.471824 -1.33601151588
84 3 1 -0.106 -0.676923 17.451044 0.172360236447
85 3 1 0.53 -2.046681 19.556058 0.293352220721
86 3 1 -0.106 -0.759798 18.851616 0.800571484142
87 3 1 -0.106 -0.692172 19.005388 2.30964288268
88 3 1 0.53 1.839825 19.123834 2.43332021159
89 3 1 -0.106 0.578136 18.377832 2.93878609892
90 3 1 -0.106 0.680238 18.242762 4.44740757351
91 3 1 0.53 -3.797001 15.150698 1.89913358976
92 3 1 -0.106 -3.822195 13.698176 2.40582140817
93 3 1 -0.106 -3.991923 13.718956 3.91419316049
94 3 1 0.53 -5.361681 11.613942 4.03518514476
95 3 1 -0.106 -4.074798 12.318384 4.54240440818
96 3 1 -0.106 -4.007172 12.164612 6.05147580673
97 3 1 0.53 -1.475175 12.046166 6.17515313563
98 3 1 -0.106 -2.736864 12.792168 6.68061902297
99 3 1 -0.106 -2.634762 12.927238 8.18924049756
100 3 1 0.53 -3.797001 26.409302 -1.30629461524
101 3 1 -0.106 -3.822195 27.861824 -0.799606796829
102 3 1 -0.106 -3.991923 27.841044 0.708764955495
103 3 1 0.53 -5.361681 29.946058 0.829756939768
104 3 1 -0.106 -4.074798 29.241616 1.33697620319
105 3 1 -0.106 -4.007172 29.395388 2.84604760173
106 3 1 0.53 -1.475175 29.513834 2.96972493063
107 3 1 -0.106 -2.736864 28.767832 3.47519081797
108 3 1 -0.106 -2.634762 28.632762 4.98381229256
109 4 1 0.53 6.147999 25.540698 0.289919432617
110 4 1 -0.106 6.122805 24.088176 0.796607251026
111 4 1 -0.106 5.953077 24.108956 2.30497900335
112 4 1 0.53 4.583319 22.003942 2.42597098762
113 4 1 -0.106 5.870202 22.708384 2.93319025104
114 4 1 -0.106 5.937828 22.554612 4.44226164958
115 4 1 0.53 8.469825 22.436166 4.56593897849
116 4 1 -0.106 7.208136 23.182168 5.07140486583
117 4 1 -0.106 7.310238 23.317238 6.58002634042
118 4 1 0.53 6.147999 16.019302 -2.91550877238
119 4 1 -0.106 6.122805 17.471824 -2.40882095397
120 4 1 -0.106 5.953077 17.451044 -0.900449201647
121 4 1 0.53 4.583319 19.556058 -0.779457217374
122 4 1 -0.106 5.870202 18.851616 -0.272237953953
123 4 1 -0.106 5.937828 19.005388 1.23683344459
124 4 1 0.53 8.469825 19.123834 1.36051077349
125 4 1 -0.106 7.208136 18.377832 1.86597666083
126 4 1 -0.106 7.310238 18.242762 3.37459813542
127 4 1 0.53 2.832999 15.150698 0.826324151665
128 4 1 -0.106 2.807805 13.698176 1.33301197007
129 4 1 -0.106 2.638077 13.718956 2.8413837224
130 4 1 0.53 1.268319 11.613942 2.96237570667
131 4 1 -0.106 2.555202 12.318384 3.46959497009
132 4 1 -0.106 2.622828 12.164612 4.97866636863
133 4 1 0.53 5.154825 12.046166 5.10234369753
134 4 1 -0.106 3.893136 12.792168 5.60780958487
135 4 1 -0.106 3.995238 12.927238 7.11643105946
136 4 1 0.53 2.832999 26.409302 -2.37910405333
137 4 1 -0.106 2.807805 27.861824 -1.87241623492
138 4 1 -0.106 2.638077 27.841044 -0.3640444826
139 4 1 0.53 1.268319 29.946058 -0.243052498326
140 4 1 -0.106 2.555202 29.241616 0.264166765095
141 4 1 -0.106 2.622828 29.395388 1.77323816364
142 4 1 0.53 5.154825 29.513834 1.89691549254
143 4 1 -0.106 3.893136 28.767832 2.40238137988
144 4 1 -0.106 3.995238 28.632762 3.91100285447
145 1 2 0 -1.19822985059 2.64348325371 1.33029296649
146 1 2 0.53 0.165096989681 3.87576876457 3.8272304705
147 1 2 0.53 -1.58835925693 3.89093162922 3.62971569624
148 1 2 0.53 0.0845568735757 1.3553447416 3.59527976534
149 1 2 0.53 -1.5830299151 2.23758219877 5.96454941882
150 1 2 0.53 -0.729765193127 0.705261360994 5.77017099495
151 1 2 0.53 0.645721459293 3.42181123077 5.73707810112
152 1 2 0.53 -0.118786520685 2.85902202607 8.3369518914
153 1 2 0.53 1.52992611341 2.23250922467 8.28146164769
154 1 2 0.53 -1.519001 4.760698 0.992728870712
155 1 2 0.53 0.036499 5.658698 0.992728870712
156 1 2 0.53 0.036499 3.862698 0.992728870712
157 1 2 0.53 -3.083681 1.223942 3.12878042572
158 1 2 0.53 -1.528181 2.121942 3.12878042572
159 1 2 0.53 -1.528181 0.325942 3.12878042572
160 1 2 0.53 2.876825 1.656166 5.26874841658
161 1 2 0.53 1.321325 2.554166 5.26874841658
162 1 2 0.53 1.321325 0.758166 5.26874841658
163 1 2 0.53 0.183839850589 -3.97286874629 -0.796887793243
164 1 2 0.53 -1.58835925693 -3.89093162922 0.424287491245
165 1 2 0.53 0.165096989681 -3.87576876457 0.6218022655
166 1 2 0.53 -1.60415287358 -2.5014232584 1.21129140794
167 1 2 0.53 -0.729765193127 -0.705261360994 2.56474278995
168 1 2 0.53 -1.5830299151 -2.23758219877 2.75912121382
169 1 2 0.53 0.510550540707 -1.38252476923 3.34592230172
170 1 2 0.53 1.52992611341 -2.23250922467 5.0760334427
171 1 2 0.53 -0.118786520685 -2.85902202607 5.1315236864
172 1 2 0.53 -1.519001 -4.760698 -1.47269933428
173 1 2 0.53 0.036499 -5.658698 -1.47269933428
174 1 2 0.53 0.036499 -3.862698 -1.47269933428
175 1 2 0.53 -3.083681 -1.223942 -0.0766477792792
176 1 2 0.53 -1.528181 -2.121942 -0.0766477792792
177 1 2 0.53 -1.528181 -0.325942 -0.0766477792792
178 1 2 0.53 2.876825 -1.656166 2.06332021159
179 1 2 0.53 1.321325 -2.554166 2.06332021159
180 1 2 0.53 1.321325 -0.758166 2.06332021159
181 1 2 0.53 -4.51322985059 -7.74651674629 1.86669768553
182 1 2 0.53 -3.14990301032 -6.51423123543 4.36363518954
183 1 2 0.53 -4.90335925693 -6.49906837078 4.16612041529
184 1 2 0.53 -3.23044312642 -9.0346552584 4.13168448439
185 1 2 0.53 -4.8980299151 -8.15241780123 6.50095413786
186 1 2 0.53 -4.04476519313 -9.68473863901 6.30657571399
187 1 2 0.53 -2.66927854071 -6.96818876923 6.27348282017
188 1 2 0.53 -3.43378652069 -7.53097797393 8.87335661044
189 1 2 0.53 -1.78507388659 -8.15749077533 8.81786636674
190 1 2 0.53 -4.834001 -5.629302 1.52913358976
191 1 2 0.53 -3.278501 -6.527302 1.52913358976
192 1 2 0.53 -3.278501 -4.731302 1.52913358976
193 1 2 0.53 -6.398681 -9.166058 3.66518514476
194 1 2 0.53 -4.843181 -10.064058 3.66518514476
195 1 2 0.53 -4.843181 -8.268058 3.66518514476
196 1 2 0.53 -2.512175 -8.733834 5.80515313563
197 1 2 0.53 -0.956675 -9.631834 5.80515313563
198 1 2 0.53 -0.956675 -7.835834 5.80515313563
199 1 2 0.53 -3.13116014941 6.41713125371 -0.260483074196
200 1 2 0.53 -4.90335925693 6.49906837078 0.960692210292
201 1 2 0.53 -3.14990301032 6.51423123543 1.15820698455
202 1 2 0.53 -4.91915287358 7.8885767416 1.74769612698
203 1 2 0.53 -4.04476519313 9.68473863901 3.101147509
204 1 2 0.53 -4.8980299151 8.15241780123 3.29552593287
205 1 2 0.53 -2.80444945929 9.00747523077 3.88232702077
206 1 2 0.53 -1.78507388659 8.15749077533 5.61243816174
207 1 2 0.53 -3.43378652069 7.53097797393 5.66792840545
208 1 2 0.53 -4.834001 5.629302 -0.936294615237
209 1 2 0.53 -3.278501 6.527302 -0.936294615237
210 1 2 0.53 -3.278501 4.731302 -0.936294615237
211 1 2 0.53 -6.398681 9.166058 0.459756939768
212 1 2 0.53 -4.843181 10.064058 0.459756939768
213 1 2 0.53 -4.843181 8.268058 0.459756939768
214 1 2 0.53 -2.512175 8.733834 2.59972493063
215 1 2 0.53 -0.956675 9.631834 2.59972493063
216 1 2 0.53 -0.956675 7.835834 2.59972493063
217 2 2 0.53 5.43177014941 2.64348325371 0.257483528392
218 2 2 0.53 6.79509698968 3.87576876457 2.7544210324
219 2 2 0.53 5.04164074307 3.89093162922 2.55690625815
220 2 2 0.53 6.71455687358 1.3553447416 2.52247032725
221 2 2 0.53 5.0469700849 2.23758219877 4.89173998072
222 2 2 0.53 5.90023480687 0.705261360994 4.69736155685
223 2 2 0.53 7.27572145929 3.42181123077 4.66426866303
224 2 2 0.53 6.51121347931 2.85902202607 7.2641424533
225 2 2 0.53 8.15992611341 2.23250922467 7.2086522096
226 2 2 0.53 7.184999 4.760698 -0.0800805673825
227 2 2 0.53 5.629499 5.658698 -0.0800805673825
228 2 2 0.53 5.629499 3.862698 -0.0800805673825
229 2 2 0.53 5.620319 1.223942 2.05597098762
230 2 2 0.53 4.064819 2.121942 2.05597098762
231 2 2 0.53 4.064819 0.325942 2.05597098762
232 2 2 0.53 9.506825 1.656166 4.19593897849
233 2 2 0.53 7.951325 2.554166 4.19593897849
234 2 2 0.53 7.951325 0.758166 4.19593897849
235 2 2 0.53 6.81383985059 -3.97286874629 -1.86969723134
236 2 2 0.53 5.04164074307 -3.89093162922 -0.648521946849
237 2 2 0.53 6.79509698968 -3.87576876457 -0.451007172594
238 2 2 0.53 5.02584712642 -2.5014232584 0.138481969842
239 2 2 0.53 5.90023480687 -0.705261360994 1.49193335186
240 2 2 0.53 5.0469700849 -2.23758219877 1.68631177572
241 2 2 0.53 7.14055054071 -1.38252476923 2.27311286363
242 2 2 0.53 8.15992611341 -2.23250922467 4.0032240046
243 2 2 0.53 6.51121347931 -2.85902202607 4.05871424831
244 2 2 0.53 7.184999 -4.760698 -2.54550877238
245 2 2 0.53 5.629499 -5.658698 -2.54550877238
246 2 2 0.53 5.629499 -3.862698 -2.54550877238
247 2 2 0.53 5.620319 -1.223942 -0.409457217374
248 2 2 0.53 4.064819 -2.121942 -0.409457217374
249 2 2 0.53 4.064819 -0.325942 -0.409457217374
250 2 2 0.53 9.506825 -1.656166 0.990510773491
251 2 2 0.53 7.951325 -2.554166 0.990510773491
252 2 2 0.53 7.951325 -0.758166 0.990510773491
253 2 2 0.53 2.11677014941 -7.74651674629 0.79388824744
254 2 2 0.53 3.48009698968 -6.51423123543 3.29082575145
255 2 2 0.53 1.72664074307 -6.49906837078 3.09331097719
256 2 2 0.53 3.39955687358 -9.0346552584 3.0588750463
257 2 2 0.53 1.7319700849 -8.15241780123 5.42814469977
258 2 2 0.53 2.58523480687 -9.68473863901 5.2337662759
259 2 2 0.53 3.96072145929 -6.96818876923 5.20067338208
260 2 2 0.53 3.19621347931 -7.53097797393 7.80054717235
261 2 2 0.53 4.84492611341 -8.15749077533 7.74505692865
262 2 2 0.53 3.869999 -5.629302 0.456324151665
263 2 2 0.53 2.314499 -6.527302 0.456324151665
264 2 2 0.53 2.314499 -4.731302 0.456324151665
265 2 2 0.53 2.305319 -9.166058 2.59237570667
266 2 2 0.53 0.749819 -10.064058 2.59237570667
267 2 2 0.53 0.749819 -8.268058 2.59237570667
268 2 2 0.53 6.191825 -8.733834 4.73234369753
269 2 2 0.53 4.636325 -9.631834 4.73234369753
270 2 2 0.53 4.636325 -7.835834 4.73234369753
271 2 2 0.53 3.49883985059 6.41713125371 -1.33329251229
272 2 2 0.53 1.72664074307 6.49906837078 -0.112117227802
273 2 2 0.53 3.48009698968 6.51423123543 0.085397546453
274 2 2 0.53 1.71084712642 7.8885767416 0.67488668889
275 2 2 0.53 2.58523480687 9.68473863901 2.0283380709
276 2 2 0.53 1.7319700849 8.15241780123 2.22271649477
277 2 2 0.53 3.82555054071 9.00747523077 2.80951758268
278 2 2 0.53 4.84492611341 8.15749077533 4.53962872365
279 2 2 0.53 3.19621347931 7.53097797393 4.59511896735
280 2 2 0.53 3.869999 5.629302 -2.00910405333
281 2 2 0.53 2.314499 6.527302 -2.00910405333
282 2 2 0.53 2.314499 4.731302 -2.00910405333
283 2 2 0.53 2.305319 9.166058 -0.613052498326
284 2 2 0.53 0.749819 10.064058 -0.613052498326
285 2 2 0.53 0.749819 8.268058 -0.613052498326
286 2 2 0.53 6.191825 8.733834 1.52691549254
287 2 2 0.53 4.636325 9.631834 1.52691549254
288 2 2 0.53 4.636325 7.835834 1.52691549254
289 3 2 0.53 -1.19822985059 23.4234832537 1.33029296649
290 3 2 0.53 0.165096989681 24.6557687646 3.8272304705
291 3 2 0.53 -1.58835925693 24.6709316292 3.62971569624
292 3 2 0.53 0.0845568735757 22.1353447416 3.59527976534
293 3 2 0.53 -1.5830299151 23.0175821988 5.96454941882
294 3 2 0.53 -0.729765193127 21.485261361 5.77017099495
295 3 2 0.53 0.645721459293 24.2018112308 5.73707810112
296 3 2 0.53 -0.118786520685 23.6390220261 8.3369518914
297 3 2 0.53 1.52992611341 23.0125092247 8.28146164769
298 3 2 0.53 -1.519001 25.540698 0.992728870712
299 3 2 0.53 0.036499 26.438698 0.992728870712
300 3 2 0.53 0.036499 24.642698 0.992728870712
301 3 2 0.53 -3.083681 22.003942 3.12878042572
302 3 2 0.53 -1.528181 22.901942 3.12878042572
303 3 2 0.53 -1.528181 21.105942 3.12878042572
304 3 2 0.53 2.876825 22.436166 5.26874841658
305 3 2 0.53 1.321325 23.334166 5.26874841658
306 3 2 0.53 1.321325 21.538166 5.26874841658
307 3 2 0.53 0.183839850589 16.8071312537 -0.796887793243
308 3 2 0.53 -1.58835925693 16.8890683708 0.424287491245
309 3 2 0.53 0.165096989681 16.9042312354 0.6218022655
310 3 2 0.53 -1.60415287358 18.2785767416 1.21129140794
311 3 2 0.53 -0.729765193127 20.074738639 2.56474278995
312 3 2 0.53 -1.5830299151 18.5424178012 2.75912121382
313 3 2 0.53 0.510550540707 19.3974752308 3.34592230172
314 3 2 0.53 1.52992611341 18.5474907753 5.0760334427
315 3 2 0.53 -0.118786520685 17.9209779739 5.1315236864
316 3 2 0.53 -1.519001 16.019302 -1.47269933428
317 3 2 0.53 0.036499 16.917302 -1.47269933428
318 3 2 0.53 0.036499 15.121302 -1.47269933428
319 3 2 0.53 -3.083681 19.556058 -0.0766477792792
320 3 2 0.53 -1.528181 20.454058 -0.0766477792792
321 3 2 0.53 -1.528181 18.658058 -0.0766477792792
322 3 2 0.53 2.876825 19.123834 2.06332021159
323 3 2 0.53 1.321325 20.021834 2.06332021159
324 3 2 0.53 1.321325 18.225834 2.06332021159
325 3 2 0.53 -4.51322985059 13.0334832537 1.86669768553
326 3 2 0.53 -3.14990301032 14.2657687646 4.36363518954
327 3 2 0.53 -4.90335925693 14.2809316292 4.16612041529
328 3 2 0.53 -3.23044312642 11.7453447416 4.13168448439
329 3 2 0.53 -4.8980299151 12.6275821988 6.50095413786
330 3 2 0.53 -4.04476519313 11.095261361 6.30657571399
331 3 2 0.53 -2.66927854071 13.8118112308 6.27348282017
332 3 2 0.53 -3.43378652069 13.2490220261 8.87335661044
333 3 2 0.53 -1.78507388659 12.6225092247 8.81786636674
334 3 2 0.53 -4.834001 15.150698 1.52913358976
335 3 2 0.53 -3.278501 16.048698 1.52913358976
336 3 2 0.53 -3.278501 14.252698 1.52913358976
337 3 2 0.53 -6.398681 11.613942 3.66518514476
338 3 2 0.53 -4.843181 12.511942 3.66518514476
339 3 2 0.53 -4.843181 10.715942 3.66518514476
340 3 2 0.53 -2.512175 12.046166 5.80515313563
341 3 2 0.53 -0.956675 12.944166 5.80515313563
342 3 2 0.53 -0.956675 11.148166 5.80515313563
343 3 2 0.53 -3.13116014941 27.1971312537 -0.260483074196
344 3 2 0.53 -4.90335925693 27.2790683708 0.960692210292
345 3 2 0.53 -3.14990301032 27.2942312354 1.15820698455
346 3 2 0.53 -4.91915287358 28.6685767416 1.74769612698
347 3 2 0.53 -4.04476519313 30.464738639 3.101147509
348 3 2 0.53 -4.8980299151 28.9324178012 3.29552593287
349 3 2 0.53 -2.80444945929 29.7874752308 3.88232702077
350 3 2 0.53 -1.78507388659 28.9374907753 5.61243816174
351 3 2 0.53 -3.43378652069 28.3109779739 5.66792840545
352 3 2 0.53 -4.834001 26.409302 -0.936294615237
353 3 2 0.53 -3.278501 27.307302 -0.936294615237
354 3 2 0.53 -3.278501 25.511302 -0.936294615237
355 3 2 0.53 -6.398681 29.946058 0.459756939768
356 3 2 0.53 -4.843181 30.844058 0.459756939768
357 3 2 0.53 -4.843181 29.048058 0.459756939768
358 3 2 0.53 -2.512175 29.513834 2.59972493063
359 3 2 0.53 -0.956675 30.411834 2.59972493063
360 3 2 0.53 -0.956675 28.615834 2.59972493063
361 4 2 0.53 5.43177014941 23.4234832537 0.257483528392
362 4 2 0.53 6.79509698968 24.6557687646 2.7544210324
363 4 2 0.53 5.04164074307 24.6709316292 2.55690625815
364 4 2 0.53 6.71455687358 22.1353447416 2.52247032725
365 4 2 0.53 5.0469700849 23.0175821988 4.89173998072
366 4 2 0.53 5.90023480687 21.485261361 4.69736155685
367 4 2 0.53 7.27572145929 24.2018112308 4.66426866303
368 4 2 0.53 6.51121347931 23.6390220261 7.2641424533
369 4 2 0.53 8.15992611341 23.0125092247 7.2086522096
370 4 2 0.53 7.184999 25.540698 -0.0800805673825
371 4 2 0.53 5.629499 26.438698 -0.0800805673825
372 4 2 0.53 5.629499 24.642698 -0.0800805673825
373 4 2 0.53 5.620319 22.003942 2.05597098762
374 4 2 0.53 4.064819 22.901942 2.05597098762
375 4 2 0.53 4.064819 21.105942 2.05597098762
376 4 2 0.53 9.506825 22.436166 4.19593897849
377 4 2 0.53 7.951325 23.334166 4.19593897849
378 4 2 0.53 7.951325 21.538166 4.19593897849
379 4 2 0.53 6.81383985059 16.8071312537 -1.86969723134
380 4 2 0.53 5.04164074307 16.8890683708 -0.648521946849
381 4 2 0.53 6.79509698968 16.9042312354 -0.451007172594
382 4 2 0.53 5.02584712642 18.2785767416 0.138481969842
383 4 2 0.53 5.90023480687 20.074738639 1.49193335186
384 4 2 0.53 5.0469700849 18.5424178012 1.68631177572
385 4 2 0.53 7.14055054071 19.3974752308 2.27311286363
386 4 2 0.53 8.15992611341 18.5474907753 4.0032240046
387 4 2 0.53 6.51121347931 17.9209779739 4.05871424831
388 4 2 0.53 7.184999 16.019302 -2.54550877238
389 4 2 0.53 5.629499 16.917302 -2.54550877238
390 4 2 0.53 5.629499 15.121302 -2.54550877238
391 4 2 0.53 5.620319 19.556058 -0.409457217374
392 4 2 0.53 4.064819 20.454058 -0.409457217374
393 4 2 0.53 4.064819 18.658058 -0.409457217374
394 4 2 0.53 9.506825 19.123834 0.990510773491
395 4 2 0.53 7.951325 20.021834 0.990510773491
396 4 2 0.53 7.951325 18.225834 0.990510773491
397 4 2 0.53 2.11677014941 13.0334832537 0.79388824744
398 4 2 0.53 3.48009698968 14.2657687646 3.29082575145
399 4 2 0.53 1.72664074307 14.2809316292 3.09331097719
400 4 2 0.53 3.39955687358 11.7453447416 3.0588750463
401 4 2 0.53 1.7319700849 12.6275821988 5.42814469977
402 4 2 0.53 2.58523480687 11.095261361 5.2337662759
403 4 2 0.53 3.96072145929 13.8118112308 5.20067338208
404 4 2 0.53 3.19621347931 13.2490220261 7.80054717235
405 4 2 0.53 4.84492611341 12.6225092247 7.74505692865
406 4 2 0.53 3.869999 15.150698 0.456324151665
407 4 2 0.53 2.314499 16.048698 0.456324151665
408 4 2 0.53 2.314499 14.252698 0.456324151665
409 4 2 0.53 2.305319 11.613942 2.59237570667
410 4 2 0.53 0.749819 12.511942 2.59237570667
411 4 2 0.53 0.749819 10.715942 2.59237570667
412 4 2 0.53 6.191825 12.046166 4.73234369753
413 4 2 0.53 4.636325 12.944166 4.73234369753
414 4 2 0.53 4.636325 11.148166 4.73234369753
415 4 2 0.53 3.49883985059 27.1971312537 -1.33329251229
416 4 2 0.53 1.72664074307 27.2790683708 -0.112117227802
417 4 2 0.53 3.48009698968 27.2942312354 0.085397546453
418 4 2 0.53 1.71084712642 28.6685767416 0.67488668889
419 4 2 0.53 2.58523480687 30.464738639 2.0283380709
420 4 2 0.53 1.7319700849 28.9324178012 2.22271649477
421 4 2 0.53 3.82555054071 29.7874752308 2.80951758268
422 4 2 0.53 4.84492611341 28.9374907753 4.53962872365
423 4 2 0.53 3.19621347931 28.3109779739 4.59511896735
424 4 2 0.53 3.869999 26.409302 -2.00910405333
425 4 2 0.53 2.314499 27.307302 -2.00910405333
426 4 2 0.53 2.314499 25.511302 -2.00910405333
427 4 2 0.53 2.305319 29.946058 -0.613052498326
428 4 2 0.53 0.749819 30.844058 -0.613052498326
429 4 2 0.53 0.749819 29.048058 -0.613052498326
430 4 2 0.53 6.191825 29.513834 1.52691549254
431 4 2 0.53 4.636325 30.411834 1.52691549254
432 4 2 0.53 4.636325 28.615834 1.52691549254


Bonds

1 1 1 2
2 1 2 3
3 1 3 5
4 1 4 5
5 1 5 6
6 1 6 8
7 1 7 8
8 1 8 9
9 1 10 11
10 1 11 12
11 1 12 14
12 1 13 14
13 1 14 15
14 1 15 17
15 1 16 17
16 1 17 18
17 1 19 20
18 1 20 21
19 1 21 23
20 1 22 23
21 1 23 24
22 1 24 26
23 1 25 26
24 1 26 27
25 1 28 29
26 1 29 30
27 1 30 32
28 1 31 32
29 1 32 33
30 1 33 35
31 1 34 35
32 1 35 36
33 1 37 38
34 1 38 39
35 1 39 41
36 1 40 41
37 1 41 42
38 1 42 44
39 1 43 44
40 1 44 45
41 1 46 47
42 1 47 48
43 1 48 50
44 1 49 50
45 1 50 51
46 1 51 53
47 1 52 53
48 1 53 54
49 1 55 56
50 1 56 57
51 1 57 59
52 1 58 59
53 1 59 60
54 1 60 62
55 1 61 62
56 1 62 63
57 1 64 65
58 1 65 66
59 1 66 68
60 1 67 68
61 1 68 69
62 1 69 71
63 1 70 71
64 1 71 72
65 1 73 74
66 1 74 75
67 1 75 77
68 1 76 77
69 1 77 78
70 1 78 80
71 1 79 80
72 1 80 81
73 1 82 83
74 1 83 84
75 1 84 86
76 1 85 86
77 1 86 87
78 1 87 89
79 1 88 89
80 1 89 90
81 1 91 92
82 1 92 93
83 1 93 95
84 1 94 95
85 1 95 96
86 1 96 98
87 1 97 98
88 1 98 99
89 1 100 101
90 1 101 102
91 1 102 104
92 1 103 104
93 1 104 105
94 1 105 107
95 1 106 107
96 1 107 108
97 1 109 110
98 1 110 111
99 1 111 113
100 1 112 113
101 1 113 114
102 1 114 116
103 1 115 116
104 1 116 117
105 1 118 119
106 1 119 120
107 1 120 122
108 1 121 122
109 1 122 123
110 1 123 125
111 1 124 125
112 1 125 126
113 1 127 128
114 1 128 129
115 1 129 131
116 1 130 131
117 1 131 132
118 1 132 134
119 1 133 134
120 1 134 135
121 1 136 137
122 1 137 138
123 1 138 140
124 1 139 140
125 1 140 141
126 1 141 143
127 1 142 143
128 1 143 144
129 2 289 10
130 2 289 11
131 2 289 12
132 2 290 1
133 2 290 12
134 2 291 2
135 2 291 3
136 2 292 13
137 2 292 14
138 2 292 15
139 2 293 4
140 2 293 14
141 2 294 5
142 2 294 6
143 2 295 16
144 2 295 17
145 2 295 18
146 2 296 7
147 2 296 17
148 2 297 8
149 2 297 9
150 2 298 28
151 2 298 29
152 2 298 30
153 2 299 19
154 2 300 20
155 2 300 21
156 2 301 31
157 2 301 32
158 2 301 33
159 2 302 22
160 2 302 32
161 2 303 23
162 2 303 24
163 2 304 34
164 2 304 35
165 2 304 36
166 2 305 25
167 2 305 35
168 2 306 26
169 2 306 27
170 2 307 46
171 2 307 47
172 2 307 48
173 2 308 37
174 2 308 47
175 2 309 38
176 2 309 39
177 2 310 49
178 2 310 50
179 2 310 51
180 2 311 40
181 2 311 51
182 2 312 41
183 2 312 42
184 2 313 52
185 2 313 53
186 2 313 54
187 2 314 43
188 2 314 52
189 2 315 44
190 2 315 45
191 2 316 64
192 2 316 65
193 2 316 66
194 2 317 55
195 2 318 56
196 2 318 57
197 2 319 67
198 2 319 68
199 2 319 69
200 2 320 58
201 2 320 69
202 2 321 59
203 2 321 60
204 2 322 70
205 2 322 71
206 2 322 72
207 2 323 61
208 2 323 70
209 2 324 62
210 2 324 63
211 2 325 82
212 2 325 83
213 2 325 84
214 2 326 73
215 2 326 84
216 2 327 74
217 2 327 75
218 2 328 85
219 2 328 86
220 2 328 87
221 2 329 76
222 2 329 85
223 2 330 77
224 2 330 78
225 2 331 88
226 2 331 89
227 2 331 90
228 2 332 79
229 2 332 89
230 2 333 80
231 2 333 81
232 2 334 100
233 2 334 101
234 2 334 102
235 2 335 91
236 2 336 92
237 2 336 93
238 2 337 103
239 2 337 104
240 2 337 105
241 2 338 94
242 2 339 95
243 2 339 96
244 2 340 106
245 2 340 107
246 2 340 108
247 2 341 97
248 2 341 107
249 2 342 98
250 2 342 99
251 2 343 118
252 2 343 119
253 2 343 120
254 2 344 109
255 2 344 119
256 2 345 110
257 2 345 111
258 2 346 121
259 2 346 122
260 2 346 123
261 2 347 112
262 2 347 121
263 2 348 113
264 2 348 114
265 2 349 124
266 2 349 125
267 2 349 126
268 2 350 115
269 2 350 126
270 2 351 116
271 2 351 117
272 2 352 136
273 2 352 137
274 2 352 138
275 2 353 127
276 2 354 128
277 2 354 129
278 2 355 139
279 2 355 140
280 2 355 141
281 2 356 130
282 2 356 139
283 2 357 131
284 2 357 132
285 2 358 142
286 2 358 143
287 2 358 144
288 2 359 133
289 2 359 144
290 2 360 134
291 2 360 135
292 2 361 154
293 2 361 155
294 2 361 156
295 2 362 145
296 2 362 156
297 2 363 146
298 2 363 147
299 2 364 157
300 2 364 158
301 2 364 159
302 2 365 148
303 2 365 158
304 2 366 149
305 2 366 150
306 2 367 160
307 2 367 161
308 2 367 162
309 2 368 151
310 2 368 161
311 2 369 152
312 2 369 153
313 2 370 172
314 2 370 173
315 2 370 174
316 2 371 163
317 2 372 164
318 2 372 165
319 2 373 175
320 2 373 176
321 2 373 177
322 2 374 166
323 2 374 177
324 2 375 167
325 2 375 168
326 2 376 178
327 2 376 179
328 2 376 180
329 2 377 169
330 2 377 180
331 2 378 170
332 2 378 171
333 2 379 190
334 2 379 191
335 2 379 192
336 2 380 181
337 2 380 192
338 2 381 182
339 2 381 183
340 2 382 193
341 2 382 194
342 2 382 195
343 2 383 184
344 2 383 194
345 2 384 185
346 2 384 186
347 2 385 196
348 2 385 197
349 2 385 198
350 2 386 187
351 2 386 196
352 2 387 188
353 2 387 189
354 2 388 208
355 2 388 209
356 2 388 210
357 2 389 199
358 2 390 200
359 2 390 201
360 2 391 211
361 2 391 212
362 2 391 213
363 2 392 202
364 2 392 213
365 2 393 203
366 2 393 204
367 2 394 214
368 2 394 215
369 2 394 216
370 2 395 205
371 2 395 214
372 2 396 206
373 2 396 207
374 2 397 226
375 2 397 227
376 2 397 228
377 2 398 217
378 2 398 228
379 2 399 218
380 2 399 219
381 2 400 229
382 2 400 230
383 2 400 231
384 2 401 220
385 2 401 229
386 2 402 221
387 2 402 222
388 2 403 232
389 2 403 233
390 2 403 234
391 2 404 223
392 2 404 233
393 2 405 224
394 2 405 225
395 2 406 244
396 2 406 245
397 2 406 246
398 2 407 235
399 2 408 236
400 2 408 237
401 2 409 247
402 2 409 248
403 2 409 249
404 2 410 238
405 2 411 239
406 2 411 240
407 2 412 250
408 2 412 251
409 2 412 252
410 2 413 241
411 2 413 252
412 2 414 242
413 2 414 243
414 2 415 262
415 2 415 263
416 2 415 264
417 2 416 253
418 2 416 264
419 2 417 254
420 2 417 255
421 2 418 265
422 2 418 266
423 2 418 267
424 2 419 256
425 2 419 265
426 2 420 257
427 2 420 258
428 2 421 268
429 2 421 269
430 2 421 270
431 2 422 259
432 2 422 269
433 2 423 260
434 2 423 261
435 2 424 280
436 2 424 281
437 2 424 282
438 2 425 271
439 2 426 272
440 2 426 273
441 2 427 283
442 2 427 284
443 2 427 285
444 2 428 274
445 2 428 283
446 2 429 275
447 2 429 276
448 2 430 286
449 2 430 287
450 2 430 288
451 2 431 277
452 2 431 288


Angles

1 1 1 2 3
2 1 2 3 5
3 1 3 5 4
4 1 3 5 6
5 1 4 5 6
6 1 5 6 8
7 1 6 8 7
8 1 6 8 9
9 1 7 8 9
10 1 10 11 12
11 1 11 12 14
12 1 12 14 13
13 1 12 14 15
14 1 13 14 15
15 1 14 15 17
16 1 15 17 16
17 1 15 17 18
18 1 16 17 18
19 1 19 20 21
20 1 20 21 23
21 1 21 23 22
22 1 21 23 24
23 1 22 23 24
24 1 23 24 26
25 1 24 26 25
26 1 24 26 27
27 1 25 26 27
28 1 28 29 30
29 1 29 30 32
30 1 30 32 31
31 1 30 32 33
32 1 31 32 33
33 1 32 33 35
34 1 33 35 34
35 1 33 35 36
36 1 34 35 36
37 1 37 38 39
38 1 38 39 41
39 1 39 41 40
40 1 39 41 42
41 1 40 41 42
42 1 41 42 44
43 1 42 44 43
44 1 42 44 45
45 1 43 44 45
46 1 46 47 48
47 1 47 48 50
48 1 48 50 49
49 1 48 50 51
50 1 49 50 51
51 1 50 51 53
52 1 51 53 52
53 1 51 53 54
54 1 52 53 54
55 1 55 56 57
56 1 56 57 59
57 1 57 59 58
58 1 57 59 60
59 1 58 59 60
60 1 59 60 62
61 1 60 62 61
62 1 60 62 63
63 1 61 62 63
64 1 64 65 66
65 1 65 66 68
66 1 66 68 67
67 1 66 68 69
68 1 67 68 69
69 1 68 69 71
70 1 69 71 70
71 1 69 71 72
72 1 70 71 72
73 1 73 74 75
74 1 74 75 77
75 1 75 77 76
76 1 75 77 78
77 1 76 77 78
78 1 77 78 80
79 1 78 80 79
80 1 78 80 81
81 1 79 80 81
82 1 82 83 84
83 1 83 84 86
84 1 84 86 85
85 1 84 86 87
86 1 85 86 87
87 1 86 87 89
88 1 87 89 88
89 1 87 89 90
90 1 88 89 90
91 1 91 92 93
92 1 92 93 95
93 1 93 95 94
94 1 93 95 96
95 1 94 95 96
96 1 95 96 98
97 1 96 98 97
98 1 96 98 99
99 1 97 98 99
100 1 100 101 102
101 1 101 102 104
102 1 102 104 103
103 1 102 104 105
104 1 103 104 105
105 1 104 105 107
106 1 105 107 106
107 1 105 107 108
108 1 106 107 108
109 1 109 110 111
110 1 110 111 113
111 1 111 113 112
112 1 111 113 114
113 1 112 113 114
114 1 113 114 116
115 1 114 116 115
116 1 114 116 117
117 1 115 116 117
118 1 118 119 120
119 1 119 120 122
120 1 120 122 121
121 1 120 122 123
122 1 121 122 123
123 1 122 123 125
124 1 123 125 124
125 1 123 125 126
126 1 124 125 126
127 1 127 128 129
128 1 128 129 131
129 1 129 131 130
130 1 129 131 132
131 1 130 131 132
132 1 131 132 134
133 1 132 134 133
134 1 132 134 135
135 1 133 134 135
136 1 136 137 138
137 1 137 138 140
138 1 138 140 139
139 1 138 140 141
140 1 139 140 141
141 1 140 141 143
142 1 141 143 142
143 1 141 143 144
144 1 142 143 144
145 2 10 145 11
146 2 10 145 12
147 2 11 145 12