LAMMPS data file via write_data, version 7 Aug 2019, timestep = 1000000

432 atoms
4 atom types
288 bonds
2  bond types
418  angles
7  angle types
-7.398681 3.876825  xlo xhi
-11.064058 11.064058  ylo yhi
-2.84269933428 29.1059258404  zlo zhi

Masses

1 12.0112
2 12.0112
3 12.0112
4 1.00797

Atoms #full

1 1 1 0.53 -0.482001 4.760698 1.36272887071
2 1 1 -0.106 -0.507195 3.308176 1.86941668912
3 1 1 -0.106 -0.676923 3.328956 3.37778844144
4 1 1 0.53 -2.046681 1.223942 3.49878042572
5 1 1 -0.106 -0.759798 1.928384 4.00599968914
6 1 1 -0.106 -0.692172 1.774612 5.51507108768
7 1 1 0.53 1.839825 1.656166 5.63874841658
8 1 1 -0.106 0.578136 2.402168 6.14421430392
9 1 1 -0.106 0.680238 2.537238 7.65283577851
10 2 1 0.53 -0.482001 -4.760698 -1.84269933428
11 2 1 -0.106 -0.507195 -3.308176 -1.33601151588
12 2 1 -0.106 -0.676923 -3.328956 0.172360236447
13 2 1 0.53 -2.046681 -1.223942 0.293352220721
14 2 1 -0.106 -0.759798 -1.928384 0.800571484142
15 2 1 -0.106 -0.692172 -1.774612 2.30964288268
16 2 1 0.53 1.839825 -1.656166 2.43332021159
17 2 1 -0.106 0.578136 -2.402168 2.93878609892
18 2 1 -0.106 0.680238 -2.537238 4.44740757351
19 3 1 0.53 -3.797001 -5.629302 1.89913358976
20 3 1 -0.106 -3.822195 -7.081824 2.40582140817
21 3 1 -0.106 -3.991923 -7.061044 3.91419316049
22 3 1 0.53 -5.361681 -9.166058 4.03518514476
23 3 1 -0.106 -4.074798 -8.461616 4.54240440818
24 3 1 -0.106 -4.007172 -8.615388 6.05147580673
25 3 1 0.53 -1.475175 -8.733834 6.17515313563
26 3 1 -0.106 -2.736864 -7.987832 6.68061902297
27 3 1 -0.106 -2.634762 -7.852762 8.18924049756
28 4 1 0.53 -3.797001 5.629302 -1.30629461524
29 4 1 -0.106 -3.822195 7.081824 -0.799606796829
30 4 1 -0.106 -3.991923 7.061044 0.708764955495
31 4 1 0.53 -5.361681 9.166058 0.829756939768
32 4 1 -0.106 -4.074798 8.461616 1.33697620319
33 4 1 -0.106 -4.007172 8.615388 2.84604760173
34 4 1 0.53 -1.475175 8.733834 2.96972493063
35 4 1 -0.106 -2.736864 7.987832 3.47519081797
36 4 1 -0.106 -2.634762 7.852762 4.98381229256
37 5 1 0.53 -0.482001 4.760698 7.7735852807
38 5 1 -0.106 -0.507195 3.308176 8.28027309911
39 5 1 -0.106 -0.676923 3.328956 9.78864485144
40 5 1 0.53 -2.046681 1.223942 9.90963683571
41 5 1 -0.106 -0.759798 1.928384 10.4168560991
42 5 1 -0.106 -0.692172 1.774612 11.9259274977
43 5 1 0.53 1.839825 1.656166 12.0496048266
44 5 1 -0.106 0.578136 2.402168 12.5550707139
45 5 1 -0.106 0.680238 2.537238 14.0636921885
46 6 1 0.53 -0.482001 -4.760698 4.56815707571
47 6 1 -0.106 -0.507195 -3.308176 5.07484489412
48 6 1 -0.106 -0.676923 -3.328956 6.58321664644
49 6 1 0.53 -2.046681 -1.223942 6.70420863071
50 6 1 -0.106 -0.759798 -1.928384 7.21142789413
51 6 1 -0.106 -0.692172 -1.774612 8.72049929267
52 6 1 0.53 1.839825 -1.656166 8.84417662158
53 6 1 -0.106 0.578136 -2.402168 9.34964250892
54 6 1 -0.106 0.680238 -2.537238 10.8582639835
55 7 1 0.53 -3.797001 -5.629302 8.30998999975
56 7 1 -0.106 -3.822195 -7.081824 8.81667781816
57 7 1 -0.106 -3.991923 -7.061044 10.3250495705
58 7 1 0.53 -5.361681 -9.166058 10.4460415548
59 7 1 -0.106 -4.074798 -8.461616 10.9532608182
60 7 1 -0.106 -4.007172 -8.615388 12.4623322167
61 7 1 0.53 -1.475175 -8.733834 12.5860095456
62 7 1 -0.106 -2.736864 -7.987832 13.091475433
63 7 1 -0.106 -2.634762 -7.852762 14.6000969076
64 8 1 0.53 -3.797001 5.629302 5.10456179476
65 8 1 -0.106 -3.822195 7.081824 5.61124961316
66 8 1 -0.106 -3.991923 7.061044 7.11962136549
67 8 1 0.53 -5.361681 9.166058 7.24061334976
68 8 1 -0.106 -4.074798 8.461616 7.74783261318
69 8 1 -0.106 -4.007172 8.615388 9.25690401172
70 8 1 0.53 -1.475175 8.733834 9.38058134062
71 8 1 -0.106 -2.736864 7.987832 9.88604722796
72 8 1 -0.106 -2.634762 7.852762 11.3946687026
73 9 1 0.53 -0.482001 4.760698 14.1844416907
74 9 1 -0.106 -0.507195 3.308176 14.6911295091
75 9 1 -0.106 -0.676923 3.328956 16.1995012614
76 9 1 0.53 -2.046681 1.223942 16.3204932457
77 9 1 -0.106 -0.759798 1.928384 16.8277125091
78 9 1 -0.106 -0.692172 1.774612 18.3367839077
79 9 1 0.53 1.839825 1.656166 18.4604612366
80 9 1 -0.106 0.578136 2.402168 18.9659271239
81 9 1 -0.106 0.680238 2.537238 20.4745485985
82 10 1 0.53 -0.482001 -4.760698 10.9790134857
83 10 1 -0.106 -0.507195 -3.308176 11.4857013041
84 10 1 -0.106 -0.676923 -3.328956 12.9940730564
85 10 1 0.53 -2.046681 -1.223942 13.1150650407
86 10 1 -0.106 -0.759798 -1.928384 13.6222843041
87 10 1 -0.106 -0.692172 -1.774612 15.1313557027
88 10 1 0.53 1.839825 -1.656166 15.2550330316
89 10 1 -0.106 0.578136 -2.402168 15.7604989189
90 10 1 -0.106 0.680238 -2.537238 17.2691203935
91 11 1 0.53 -3.797001 -5.629302 14.7208464097
92 11 1 -0.106 -3.822195 -7.081824 15.2275342282
93 11 1 -0.106 -3.991923 -7.061044 16.7359059805
94 11 1 0.53 -5.361681 -9.166058 16.8568979647
95 11 1 -0.106 -4.074798 -8.461616 17.3641172282
96 11 1 -0.106 -4.007172 -8.615388 18.8731886267
97 11 1 0.53 -1.475175 -8.733834 18.9968659556
98 11 1 -0.106 -2.736864 -7.987832 19.502331843
99 11 1 -0.106 -2.634762 -7.852762 21.0109533175
100 12 1 0.53 -3.797001 5.629302 11.5154182047
101 12 1 -0.106 -3.822195 7.081824 12.0221060232
102 12 1 -0.106 -3.991923 7.061044 13.5304777755
103 12 1 0.53 -5.361681 9.166058 13.6514697598
104 12 1 -0.106 -4.074798 8.461616 14.1586890232
105 12 1 -0.106 -4.007172 8.615388 15.6677604217
106 12 1 0.53 -1.475175 8.733834 15.7914377506
107 12 1 -0.106 -2.736864 7.987832 16.296903638
108 12 1 -0.106 -2.634762 7.852762 17.8055251125
109 13 1 0.53 -0.482001 4.760698 20.5952981007
110 13 1 -0.106 -0.507195 3.308176 21.1019859191
111 13 1 -0.106 -0.676923 3.328956 22.6103576714
112 13 1 0.53 -2.046681 1.223942 22.7313496557
113 13 1 -0.106 -0.759798 1.928384 23.2385689191
114 13 1 -0.106 -0.692172 1.774612 24.7476403177
115 13 1 0.53 1.839825 1.656166 24.8713176466
116 13 1 -0.106 0.578136 2.402168 25.3767835339
117 13 1 -0.106 0.680238 2.537238 26.8854050085
118 14 1 0.53 -0.482001 -4.760698 17.3898698957
119 14 1 -0.106 -0.507195 -3.308176 17.8965577141
120 14 1 -0.106 -0.676923 -3.328956 19.4049294664
121 14 1 0.53 -2.046681 -1.223942 19.5259214507
122 14 1 -0.106 -0.759798 -1.928384 20.0331407141
123 14 1 -0.106 -0.692172 -1.774612 21.5422121127
124 14 1 0.53 1.839825 -1.656166 21.6658894416
125 14 1 -0.106 0.578136 -2.402168 22.1713553289
126 14 1 -0.106 0.680238 -2.537238 23.6799768035
127 15 1 0.53 -3.797001 -5.629302 21.1317028197
128 15 1 -0.106 -3.822195 -7.081824 21.6383906381
129 15 1 -0.106 -3.991923 -7.061044 23.1467623905
130 15 1 0.53 -5.361681 -9.166058 23.2677543747
131 15 1 -0.106 -4.074798 -8.461616 23.7749736382
132 15 1 -0.106 -4.007172 -8.615388 25.2840450367
133 15 1 0.53 -1.475175 -8.733834 25.4077223656
134 15 1 -0.106 -2.736864 -7.987832 25.9131882529
135 15 1 -0.106 -2.634762 -7.852762 27.4218097275
136 16 1 0.53 -3.797001 5.629302 17.9262746147
137 16 1 -0.106 -3.822195 7.081824 18.4329624331
138 16 1 -0.106 -3.991923 7.061044 19.9413341855
139 16 1 0.53 -5.361681 9.166058 20.0623261697
140 16 1 -0.106 -4.074798 8.461616 20.5695454332
141 16 1 -0.106 -4.007172 8.615388 22.0786168317
142 16 1 0.53 -1.475175 8.733834 22.2022941606
143 16 1 -0.106 -2.736864 7.987832 22.7077600479
144 16 1 -0.106 -2.634762 7.852762 24.2163815225
145 1 2 0 -1.19822985059 2.64348325371 1.33029296649
146 1 2 0.53 0.165096989681 3.87576876457 3.8272304705
147 1 2 0.53 -1.58835925693 3.89093162922 3.62971569624
148 1 2 0.53 0.0845568735757 1.3553447416 3.59527976534
149 1 2 0.53 -1.5830299151 2.23758219877 5.96454941882
150 1 2 0.53 -0.729765193127 0.705261360994 5.77017099495
151 1 2 0.53 0.645721459293 3.42181123077 5.73707810112
152 1 2 0.53 -0.118786520685 2.85902202607 8.3369518914
153 1 2 0.53 1.52992611341 2.23250922467 8.28146164769
154 1 2 0.53 -1.519001 4.760698 0.992728870712
155 1 2 0.53 0.036499 5.658698 0.992728870712
156 1 2 0.53 0.036499 3.862698 0.992728870712
157 1 2 0.53 -3.083681 1.223942 3.12878042572
158 1 2 0.53 -1.528181 2.121942 3.12878042572
159 1 2 0.53 -1.528181 0.325942 3.12878042572
160 1 2 0.53 2.876825 1.656166 5.26874841658
161 1 2 0.53 1.321325 2.554166 5.26874841658
162 1 2 0.53 1.321325 0.758166 5.26874841658
163 2 2 0.53 0.183839850589 -3.97286874629 -0.796887793243
164 2 2 0.53 -1.58835925693 -3.89093162922 0.424287491245
165 2 2 0.53 0.165096989681 -3.87576876457 0.6218022655
166 2 2 0.53 -1.60415287358 -2.5014232584 1.21129140794
167 2 2 0.53 -0.729765193127 -0.705261360994 2.56474278995
168 2 2 0.53 -1.5830299151 -2.23758219877 2.75912121382
169 2 2 0.53 0.510550540707 -1.38252476923 3.34592230172
170 2 2 0.53 1.52992611341 -2.23250922467 5.0760334427
171 2 2 0.53 -0.118786520685 -2.85902202607 5.1315236864
172 2 2 0.53 -1.519001 -4.760698 -1.47269933428
173 2 2 0.53 0.036499 -5.658698 -1.47269933428
174 2 2 0.53 0.036499 -3.862698 -1.47269933428
175 2 2 0.53 -3.083681 -1.223942 -0.0766477792792
176 2 2 0.53 -1.528181 -2.121942 -0.0766477792792
177 2 2 0.53 -1.528181 -0.325942 -0.0766477792792
178 2 2 0.53 2.876825 -1.656166 2.06332021159
179 2 2 0.53 1.321325 -2.554166 2.06332021159
180 2 2 0.53 1.321325 -0.758166 2.06332021159
181 3 2 0.53 -4.51322985059 -7.74651674629 1.86669768553
182 3 2 0.53 -3.14990301032 -6.51423123543 4.36363518954
183 3 2 0.53 -4.90335925693 -6.49906837078 4.16612041529
184 3 2 0.53 -3.23044312642 -9.0346552584 4.13168448439
185 3 2 0.53 -4.8980299151 -8.15241780123 6.50095413786
186 3 2 0.53 -4.04476519313 -9.68473863901 6.30657571399
187 3 2 0.53 -2.66927854071 -6.96818876923 6.27348282017
188 3 2 0.53 -3.43378652069 -7.53097797393 8.87335661044
189 3 2 0.53 -1.78507388659 -8.15749077533 8.81786636674
190 3 2 0.53 -4.834001 -5.629302 1.52913358976
191 3 2 0.53 -3.278501 -6.527302 1.52913358976
192 3 2 0.53 -3.278501 -4.731302 1.52913358976
193 3 2 0.53 -6.398681 -9.166058 3.66518514476
194 3 2 0.53 -4.843181 -10.064058 3.66518514476
195 3 2 0.53 -4.843181 -8.268058 3.66518514476
196 3 2 0.53 -2.512175 -8.733834 5.80515313563
197 3 2 0.53 -0.956675 -9.631834 5.80515313563
198 3 2 0.53 -0.956675 -7.835834 5.80515313563
199 4 2 0.53 -3.13116014941 6.41713125371 -0.260483074196
200 4 2 0.53 -4.90335925693 6.49906837078 0.960692210292
201 4 2 0.53 -3.14990301032 6.51423123543 1.15820698455
202 4 2 0.53 -4.91915287358 7.8885767416 1.74769612698
203 4 2 0.53 -4.04476519313 9.68473863901 3.101147509
204 4 2 0.53 -4.8980299151 8.15241780123 3.29552593287
205 4 2 0.53 -2.80444945929 9.00747523077 3.88232702077
206 4 2 0.53 -1.78507388659 8.15749077533 5.61243816174
207 4 2 0.53 -3.43378652069 7.53097797393 5.66792840545
208 4 2 0.53 -4.834001 5.629302 -0.936294615237
209 4 2 0.53 -3.278501 6.527302 -0.936294615237
210 4 2 0.53 -3.278501 4.731302 -0.936294615237
211 4 2 0.53 -6.398681 9.166058 0.459756939768
212 4 2 0.53 -4.843181 10.064058 0.459756939768
213 4 2 0.53 -4.843181 8.268058 0.459756939768
214 4 2 0.53 -2.512175 8.733834 2.59972493063
215 4 2 0.53 -0.956675 9.631834 2.59972493063
216 4 2 0.53 -0.956675 7.835834 2.59972493063
217 5 2 0.53 -1.19822985059 2.64348325371 7.74114937648
218 5 2 0.53 0.165096989681 3.87576876457 10.2380868805
219 5 2 0.53 -1.58835925693 3.89093162922 10.0405721062
220 5 2 0.53 0.0845568735757 1.3553447416 10.0061361753
221 5 2 0.53 -1.5830299151 2.23758219877 12.3754058288
222 5 2 0.53 -0.729765193127 0.705261360994 12.1810274049
223 5 2 0.53 0.645721459293 3.42181123077 12.1479345111
224 5 2 0.53 -0.118786520685 2.85902202607 14.7478083014
225 5 2 0.53 1.52992611341 2.23250922467 14.6923180577
226 5 2 0.53 -1.519001 4.760698 7.4035852807
227 5 2 0.53 0.036499 5.658698 7.4035852807
228 5 2 0.53 0.036499 3.862698 7.4035852807
229 5 2 0.53 -3.083681 1.223942 9.53963683571
230 5 2 0.53 -1.528181 2.121942 9.53963683571
231 5 2 0.53 -1.528181 0.325942 9.53963683571
232 5 2 0.53 2.876825 1.656166 11.6796048266
233 5 2 0.53 1.321325 2.554166 11.6796048266
234 5 2 0.53 1.321325 0.758166 11.6796048266
235 6 2 0.53 0.183839850589 -3.97286874629 5.61396861675
236 6 2 0.53 -1.58835925693 -3.89093162922 6.83514390124
237 6 2 0.53 0.165096989681 -3.87576876457 7.03265867549
238 6 2 0.53 -1.60415287358 -2.5014232584 7.62214781793
239 6 2 0.53 -0.729765193127 -0.705261360994 8.97559919994
240 6 2 0.53 -1.5830299151 -2.23758219877 9.16997762381
241 6 2 0.53 0.510550540707 -1.38252476923 9.75677871171
242 6 2 0.53 1.52992611341 -2.23250922467 11.4868898527
243 6 2 0.53 -0.118786520685 -2.85902202607 11.5423800964
244 6 2 0.53 -1.519001 -4.760698 4.19815707571
245 6 2 0.53 0.036499 -5.658698 4.19815707571
246 6 2 0.53 0.036499 -3.862698 4.19815707571
247 6 2 0.53 -3.083681 -1.223942 6.33420863071
248 6 2 0.53 -1.528181 -2.121942 6.33420863071
249 6 2 0.53 -1.528181 -0.325942 6.33420863071
250 6 2 0.53 2.876825 -1.656166 8.47417662158
251 6 2 0.53 1.321325 -2.554166 8.47417662158
252 6 2 0.53 1.321325 -0.758166 8.47417662158
253 7 2 0.53 -4.51322985059 -7.74651674629 8.27755409553
254 7 2 0.53 -3.14990301032 -6.51423123543 10.7744915995
255 7 2 0.53 -4.90335925693 -6.49906837078 10.5769768253
256 7 2 0.53 -3.23044312642 -9.0346552584 10.5425408944
257 7 2 0.53 -4.8980299151 -8.15241780123 12.9118105479
258 7 2 0.53 -4.04476519313 -9.68473863901 12.717432124
259 7 2 0.53 -2.66927854071 -6.96818876923 12.6843392302
260 7 2 0.53 -3.43378652069 -7.53097797393 15.2842130204
261 7 2 0.53 -1.78507388659 -8.15749077533 15.2287227767
262 7 2 0.53 -4.834001 -5.629302 7.93998999975
263 7 2 0.53 -3.278501 -6.527302 7.93998999975
264 7 2 0.53 -3.278501 -4.731302 7.93998999975
265 7 2 0.53 -6.398681 -9.166058 10.0760415548
266 7 2 0.53 -4.843181 -10.064058 10.0760415548
267 7 2 0.53 -4.843181 -8.268058 10.0760415548
268 7 2 0.53 -2.512175 -8.733834 12.2160095456
269 7 2 0.53 -0.956675 -9.631834 12.2160095456
270 7 2 0.53 -0.956675 -7.835834 12.2160095456
271 8 2 0.53 -3.13116014941 6.41713125371 6.1503733358
272 8 2 0.53 -4.90335925693 6.49906837078 7.37154862028
273 8 2 0.53 -3.14990301032 6.51423123543 7.56906339454
274 8 2 0.53 -4.91915287358 7.8885767416 8.15855253698
275 8 2 0.53 -4.04476519313 9.68473863901 9.51200391899
276 8 2 0.53 -4.8980299151 8.15241780123 9.70638234286
277 8 2 0.53 -2.80444945929 9.00747523077 10.2931834308
278 8 2 0.53 -1.78507388659 8.15749077533 12.0232945717
279 8 2 0.53 -3.43378652069 7.53097797393 12.0787848154
280 8 2 0.53 -4.834001 5.629302 4.73456179476
281 8 2 0.53 -3.278501 6.527302 4.73456179476
282 8 2 0.53 -3.278501 4.731302 4.73456179476
283 8 2 0.53 -6.398681 9.166058 6.87061334976
284 8 2 0.53 -4.843181 10.064058 6.87061334976
285 8 2 0.53 -4.843181 8.268058 6.87061334976
286 8 2 0.53 -2.512175 8.733834 9.01058134062
287 8 2 0.53 -0.956675 9.631834 9.01058134062
288 8 2 0.53 -0.956675 7.835834 9.01058134062
289 9 2 0.53 -1.19822985059 2.64348325371 14.1520057865
290 9 2 0.53 0.165096989681 3.87576876457 16.6489432905
291 9 2 0.53 -1.58835925693 3.89093162922 16.4514285162
292 9 2 0.53 0.0845568735757 1.3553447416 16.4169925853
293 9 2 0.53 -1.5830299151 2.23758219877 18.7862622388
294 9 2 0.53 -0.729765193127 0.705261360994 18.5918838149
295 9 2 0.53 0.645721459293 3.42181123077 18.5587909211
296 9 2 0.53 -0.118786520685 2.85902202607 21.1586647114
297 9 2 0.53 1.52992611341 2.23250922467 21.1031744677
298 9 2 0.53 -1.519001 4.760698 13.8144416907
299 9 2 0.53 0.036499 5.658698 13.8144416907
300 9 2 0.53 0.036499 3.862698 13.8144416907
301 9 2 0.53 -3.083681 1.223942 15.9504932457
302 9 2 0.53 -1.528181 2.121942 15.9504932457
303 9 2 0.53 -1.528181 0.325942 15.9504932457
304 9 2 0.53 2.876825 1.656166 18.0904612366
305 9 2 0.53 1.321325 2.554166 18.0904612366
306 9 2 0.53 1.321325 0.758166 18.0904612366
307 10 2 0.53 0.183839850589 -3.97286874629 12.0248250267
308 10 2 0.53 -1.58835925693 -3.89093162922 13.2460003112
309 10 2 0.53 0.165096989681 -3.87576876457 13.4435150855
310 10 2 0.53 -1.60415287358 -2.5014232584 14.0330042279
311 10 2 0.53 -0.729765193127 -0.705261360994 15.3864556099
312 10 2 0.53 -1.5830299151 -2.23758219877 15.5808340338
313 10 2 0.53 0.510550540707 -1.38252476923 16.1676351217
314 10 2 0.53 1.52992611341 -2.23250922467 17.8977462627
315 10 2 0.53 -0.118786520685 -2.85902202607 17.9532365064
316 10 2 0.53 -1.519001 -4.760698 10.6090134857
317 10 2 0.53 0.036499 -5.658698 10.6090134857
318 10 2 0.53 0.036499 -3.862698 10.6090134857
319 10 2 0.53 -3.083681 -1.223942 12.7450650407
320 10 2 0.53 -1.528181 -2.121942 12.7450650407
321 10 2 0.53 -1.528181 -0.325942 12.7450650407
322 10 2 0.53 2.876825 -1.656166 14.8850330316
323 10 2 0.53 1.321325 -2.554166 14.8850330316
324 10 2 0.53 1.321325 -0.758166 14.8850330316
325 11 2 0.53 -4.51322985059 -7.74651674629 14.6884105055
326 11 2 0.53 -3.14990301032 -6.51423123543 17.1853480095
327 11 2 0.53 -4.90335925693 -6.49906837078 16.9878332353
328 11 2 0.53 -3.23044312642 -9.0346552584 16.9533973044
329 11 2 0.53 -4.8980299151 -8.15241780123 19.3226669578
330 11 2 0.53 -4.04476519313 -9.68473863901 19.128288534
331 11 2 0.53 -2.66927854071 -6.96818876923 19.0951956402
332 11 2 0.53 -3.43378652069 -7.53097797393 21.6950694304
333 11 2 0.53 -1.78507388659 -8.15749077533 21.6395791867
334 11 2 0.53 -4.834001 -5.629302 14.3508464097
335 11 2 0.53 -3.278501 -6.527302 14.3508464097
336 11 2 0.53 -3.278501 -4.731302 14.3508464097
337 11 2 0.53 -6.398681 -9.166058 16.4868979647
338 11 2 0.53 -4.843181 -10.064058 16.4868979647
339 11 2 0.53 -4.843181 -8.268058 16.4868979647
340 11 2 0.53 -2.512175 -8.733834 18.6268659556
341 11 2 0.53 -0.956675 -9.631834 18.6268659556
342 11 2 0.53 -0.956675 -7.835834 18.6268659556
343 12 2 0.53 -3.13116014941 6.41713125371 12.5612297458
344 12 2 0.53 -4.90335925693 6.49906837078 13.7824050303
345 12 2 0.53 -3.14990301032 6.51423123543 13.9799198045
346 12 2 0.53 -4.91915287358 7.8885767416 14.569408947
347 12 2 0.53 -4.04476519313 9.68473863901 15.922860329
348 12 2 0.53 -4.8980299151 8.15241780123 16.1172387529
349 12 2 0.53 -2.80444945929 9.00747523077 16.7040398408
350 12 2 0.53 -1.78507388659 8.15749077533 18.4341509817
351 12 2 0.53 -3.43378652069 7.53097797393 18.4896412254
352 12 2 0.53 -4.834001 5.629302 11.1454182047
353 12 2 0.53 -3.278501 6.527302 11.1454182047
354 12 2 0.53 -3.278501 4.731302 11.1454182047
355 12 2 0.53 -6.398681 9.166058 13.2814697598
356 12 2 0.53 -4.843181 10.064058 13.2814697598
357 12 2 0.53 -4.843181 8.268058 13.2814697598
358 12 2 0.53 -2.512175 8.733834 15.4214377506
359 12 2 0.53 -0.956675 9.631834 15.4214377506
360 12 2 0.53 -0.956675 7.835834 15.4214377506
361 13 2 0.53 -1.19822985059 2.64348325371 20.5628621965
362 13 2 0.53 0.165096989681 3.87576876457 23.0597997005
363 13 2 0.53 -1.58835925693 3.89093162922 22.8622849262
364 13 2 0.53 0.0845568735757 1.3553447416 22.8278489953
365 13 2 0.53 -1.5830299151 2.23758219877 25.1971186488
366 13 2 0.53 -0.729765193127 0.705261360994 25.0027402249
367 13 2 0.53 0.645721459293 3.42181123077 24.9696473311
368 13 2 0.53 -0.118786520685 2.85902202607 27.5695211214
369 13 2 0.53 1.52992611341 2.23250922467 27.5140308777
370 13 2 0.53 -1.519001 4.760698 20.2252981007
371 13 2 0.53 0.036499 5.658698 20.2252981007
372 13 2 0.53 0.036499 3.862698 20.2252981007
373 13 2 0.53 -3.083681 1.223942 22.3613496557
374 13 2 0.53 -1.528181 2.121942 22.3613496557
375 13 2 0.53 -1.528181 0.325942 22.3613496557
376 13 2 0.53 2.876825 1.656166 24.5013176466
377 13 2 0.53 1.321325 2.554166 24.5013176466
378 13 2 0.53 1.321325 0.758166 24.5013176466
379 14 2 0.53 0.183839850589 -3.97286874629 18.4356814367
380 14 2 0.53 -1.58835925693 -3.89093162922 19.6568567212
381 14 2 0.53 0.165096989681 -3.87576876457 19.8543714955
382 14 2 0.53 -1.60415287358 -2.5014232584 20.4438606379
383 14 2 0.53 -0.729765193127 -0.705261360994 21.7973120199
384 14 2 0.53 -1.5830299151 -2.23758219877 21.9916904438
385 14 2 0.53 0.510550540707 -1.38252476923 22.5784915317
386 14 2 0.53 1.52992611341 -2.23250922467 24.3086026727
387 14 2 0.53 -0.118786520685 -2.85902202607 24.3640929164
388 14 2 0.53 -1.519001 -4.760698 17.0198698957
389 14 2 0.53 0.036499 -5.658698 17.0198698957
390 14 2 0.53 0.036499 -3.862698 17.0198698957
391 14 2 0.53 -3.083681 -1.223942 19.1559214507
392 14 2 0.53 -1.528181 -2.121942 19.1559214507
393 14 2 0.53 -1.528181 -0.325942 19.1559214507
394 14 2 0.53 2.876825 -1.656166 21.2958894416
395 14 2 0.53 1.321325 -2.554166 21.2958894416
396 14 2 0.53 1.321325 -0.758166 21.2958894416
397 15 2 0.53 -4.51322985059 -7.74651674629 21.0992669155
398 15 2 0.53 -3.14990301032 -6.51423123543 23.5962044195
399 15 2 0.53 -4.90335925693 -6.49906837078 23.3986896453
400 15 2 0.53 -3.23044312642 -9.0346552584 23.3642537144
401 15 2 0.53 -4.8980299151 -8.15241780123 25.7335233678
402 15 2 0.53 -4.04476519313 -9.68473863901 25.539144944
403 15 2 0.53 -2.66927854071 -6.96818876923 25.5060520501
404 15 2 0.53 -3.43378652069 -7.53097797393 28.1059258404
405 15 2 0.53 -1.78507388659 -8.15749077533 28.0504355967
406 15 2 0.53 -4.834001 -5.629302 20.7617028197
407 15 2 0.53 -3.278501 -6.527302 20.7617028197
408 15 2 0.53 -3.278501 -4.731302 20.7617028197
409 15 2 0.53 -6.398681 -9.166058 22.8977543747
410 15 2 0.53 -4.843181 -10.064058 22.8977543747
411 15 2 0.53 -4.843181 -8.268058 22.8977543747
412 15 2 0.53 -2.512175 -8.733834 25.0377223656
413 15 2 0.53 -0.956675 -9.631834 25.0377223656
414 15 2 0.53 -0.956675 -7.835834 25.0377223656
415 16 2 0.53 -3.13116014941 6.41713125371 18.9720861558
416 16 2 0.53 -4.90335925693 6.49906837078 20.1932614403
417 16 2 0.53 -3.14990301032 6.51423123543 20.3907762145
418 16 2 0.53 -4.91915287358 7.8885767416 20.980265357
419 16 2 0.53 -4.04476519313 9.68473863901 22.333716739
420 16 2 0.53 -4.8980299151 8.15241780123 22.5280951628
421 16 2 0.53 -2.80444945929 9.00747523077 23.1148962507
422 16 2 0.53 -1.78507388659 8.15749077533 24.8450073917
423 16 2 0.53 -3.43378652069 7.53097797393 24.9004976354
424 16 2 0.53 -4.834001 5.629302 17.5562746147
425 16 2 0.53 -3.278501 6.527302 17.5562746147
426 16 2 0.53 -3.278501 4.731302 17.5562746147
427 16 2 0.53 -6.398681 9.166058 19.6923261697
428 16 2 0.53 -4.843181 10.064058 19.6923261697
429 16 2 0.53 -4.843181 8.268058 19.6923261697
430 16 2 0.53 -2.512175 8.733834 21.8322941606
431 16 2 0.53 -0.956675 9.631834 21.8322941606
432 16 2 0.53 -0.956675 7.835834 21.8322941606


Bonds

1 1 1 2
2 1 2 3
3 1 3 5
4 1 4 5
5 1 5 6
6 1 6 8
7 1 7 8
8 1 8 9
9 1 9 38
10 1 10 11
11 1 11 12
12 1 12 14
13 1 13 14
14 1 14 15
15 1 15 17
16 1 16 17
17 1 17 18
18 1 18 47
19 1 19 20
20 1 20 21
21 1 21 23
22 1 22 23
23 1 23 24
24 1 24 26
25 1 25 26
26 1 26 27
27 1 27 56
28 1 28 29
29 1 29 30
30 1 30 32
31 1 31 32
32 1 32 33
33 1 33 35
34 1 34 35
35 1 35 36
36 1 36 65
37 1 37 38
38 1 38 39
39 1 39 41
40 1 40 41
41 1 41 42
42 1 42 44
43 1 43 44
44 1 44 45
45 1 45 74
46 1 46 47
47 1 47 48
48 1 48 50
49 1 49 50
50 1 50 51
51 1 51 53
52 1 52 53
53 1 53 54
54 1 54 83
55 1 55 56
56 1 56 57
57 1 57 59
58 1 58 59
59 1 59 60
60 1 60 62
61 1 61 62
62 1 62 63
63 1 63 92
64 1 64 65
65 1 65 66
66 1 66 68
67 1 67 68
68 1 68 69
69 1 69 71
70 1 70 71
71 1 71 72
72 1 72 101
73 1 73 74
74 1 74 75
75 1 75 77
76 1 76 77
77 1 77 78
78 1 78 80
79 1 79 80
80 1 80 81
81 1 81 110
82 1 82 83
83 1 83 84
84 1 84 86
85 1 85 86
86 1 86 87
87 1 87 89
88 1 88 89
89 1 89 90
90 1 90 119
91 1 91 92
92 1 92 93
93 1 93 95
94 1 94 95
95 1 95 96
96 1 96 98
97 1 97 98
98 1 98 99
99 1 99 128
100 1 100 101
101 1 101 102
102 1 102 104
103 1 103 104
104 1 104 105
105 1 105 107
106 1 106 107
107 1 107 108
108 1 108 137
109 1 109 110
110 1 110 111
111 1 111 113
112 1 112 113
113 1 113 114
114 1 114 116
115 1 115 116
116 1 116 117
117 1 118 119
118 1 119 120
119 1 120 122
120 1 121 122
121 1 122 123
122 1 123 125
123 1 124 125
124 1 125 126
125 1 127 128
126 1 128 129
127 1 129 131
128 1 130 131
129 1 131 132
130 1 132 134
131 1 133 134
132 1 134 135
133 1 136 137
134 1 137 138
135 1 138 140
136 1 139 140
137 1 140 141
138 1 141 143
139 1 142 143
140 1 143 144
141 2 289 10
142 2 289 11
143 2 289 12
144 2 290 1
145 2 290 12
146 2 291 2
147 2 291 3
148 2 292 13
149 2 292 14
150 2 292 15
151 2 293 4
152 2 293 14
153 2 294 5
154 2 294 6
155 2 295 16
156 2 295 17
157 2 295 18
158 2 296 7
159 2 296 17
160 2 297 8
161 2 297 9
162 2 298 28
163 2 298 29
164 2 298 30
165 2 299 19
166 2 300 20
167 2 300 21
168 2 301 31
169 2 301 32
170 2 301 33
171 2 302 22
172 2 302 32
173 2 303 23
174 2 303 24
175 2 304 34
176 2 304 35
177 2 304 36
178 2 305 25
179 2 305 35
180 2 306 26
181 2 306 27
182 2 307 46
183 2 307 47
184 2 307 48
185 2 308 37
186 2 308 47
187 2 309 38
188 2 309 39
189 2 310 49
190 2 310 50
191 2 310 51
192 2 311 40
193 2 311 51
194 2 312 41
195 2 312 42
196 2 313 52
197 2 313 53
198 2 313 54
199 2 314 43
200 2 314 52
201 2 315 44
202 2 315 45
203 2 316 64
204 2 316 65
205 2 316 66
206 2 317 55
207 2 318 56
208 2 318 57
209 2 319 67
210 2 319 68
211 2 319 69
212 2 320 58
213 2 320 69
214 2 321 59
215 2 321 60
216 2 322 70
217 2 322 71
218 2 322 72
219 2 323 61
220 2 323 70
221 2 324 62
222 2 324 63
223 2 325 82
224 2 325 83
225 2 325 84
226 2 326 73
227 2 326 84
228 2 327 74
229 2 327 75
230 2 328 85
231 2 328 86
232 2 328 87
233 2 329 76
234 2 329 86
235 2 330 77
236 2 330 78
237 2 331 88
238 2 331 89
239 2 331 90
240 2 332 79
241 2 332 89
242 2 333 80
243 2 333 81
244 2 334 100
245 2 334 101
246 2 334 102
247 2 335 91
248 2 335 102
249 2 336 92
250 2 336 93
251 2 337 103
252 2 337 104
253 2 337 105
254 2 338 94
255 2 338 104
256 2 339 95
257 2 339 96
258 2 340 106
259 2 340 107
260 2 340 108
261 2 341 97
262 2 341 107
263 2 342 98
264 2 342 99
265 2 343 118
266 2 343 119
267 2 343 120
268 2 344 109
269 2 344 119
270 2 345 110
271 2 345 111
272 2 346 121
273 2 346 122
274 2 346 123
275 2 347 112
276 2 347 123
277 2 348 113
278 2 348 114
279 2 349 124
280 2 349 125
281 2 349 126
282 2 350 115
283 2 350 124
284 2 351 116
285 2 351 117
286 2 352 136
287 2 352 137
288 2 352 138
289 2 353 127
290 2 353 137
291 2 354 128
292 2 354 129
293 2 355 139
294 2 355 140
295 2 355 141
296 2 356 130
297 2 356 141
298 2 357 131
299 2 357 132
300 2 358 142
301 2 358 143
302 2 358 144
303 2 359 133
304 2 359 142
305 2 360 134
306 2 360 135
307 2 361 154
308 2 361 155
309 2 361 156
310 2 362 145
311 2 362 156
312 2 363 146
313 2 363 147
314 2 364 157
315 2 364 158
316 2 364 159
317 2 365 148
318 2 365 158
319 2 366 149
320 2 366 150
321 2 367 160
322 2 367 161
323 2 367 162
324 2 368 151
325 2 368 161
326 2 369 152
327 2 369 153
328 2 370 172
329 2 370 173
330 2 370 174
331 2 371 163
332 2 371 174
333 2 372 164
334 2 372 165
335 2 373 175
336 2 373 176
337 2 373 177
338 2 374 166
339 2 374 176
340 2 375 167
341 2 375 168
342 2 376 178
343 2 376 179
344 2 376 180
345 2 377 169
346 2 377 179
347 2 378 170
348 2 378 171
349 2 379 190
350 2 379 191
351 2 379 192
352 2 380 181
353 2 380 191
354 2 381 182
355 2 381 183
356 2 382 193
357 2 382 194
358 2 382 195
359 2 383 184
360 2 383 195
361 2 384 185
362 2 384 186
363 2 385 196
364 2 385 197
365 2 385 198
366 2 386 187
367 2 386 196
368 2 387 188
369 2 387 189
370 2 388 208
371 2 388 209
372 2 388 210
373 2 389 199
374 2 389 209
375 2 390 200
376 2 390 201
377 2 391 211
378 2 391 212
379 2 391 213
380 2 392 202
381 2 392 213
382 2 393 203
383 2 393 204
384 2 394 214
385 2 394 215
386 2 394 216
387 2 395 205
388 2 395 214
389 2 396 206
390 2 396 207
391 2 397 226
392 2 397 227
393 2 397 228
394 2 398 217
395 2 398 228
396 2 399 218
397 2 399 219
398 2 400 229
399 2 400 230
400 2 400 231
401 2 401 220
402 2 401 230
403 2 402 221
404 2 402 222
405 2 403 232
406 2 403 233
407 2 403 234
408 2 404 223
409 2 404 233
410 2 405 224
411 2 405 225
412 2 406 244
413 2 406 245
414 2 406 246
415 2 407 235
416 2 407 246
417 2 408 236
418 2 408 237
419 2 409 247
420 2 409 248
421 2 409 249
422 2 410 238
423 2 410 248
424 2 411 239
425 2 411 240
426 2 412 250
427 2 412 251
428 2 412 252
429 2 413 241
430 2 413 251
431 2 414 242
432 2 414 243
433 2 415 262
434 2 415 263
435 2 415 264
436 2 416 253
437 2 416 263
438 2 417 254
439 2 417 255
440 2 418 265
441 2 418 266
442 2 418 267
443 2 419 256
444 2 419 267
445 2 420 257
446 2 420 258
447 2 421 268
448 2 421 269
449 2 421 270
450 2 422 259
451 2 422 268
452 2 423 260
453 2 423 261
454 2 424 280
455 2 424 281
456 2 424 282
457 2 425 271
458 2 425 281
459 2 426 272
460 2 426 273
461 2 427 283
462 2 427 284
463 2 427 285
464 2 428 274
465 2 428 285
466 2 429 275
467 2 429 276
468 2 430 286
469 2 430 287
470 2 430 288
471 2 431 277
472 2 431 286


Angles

1 1 1 2 3
2 1 2 3 5
3 1 3 5 4
4 1 3 5 6
5 1 4 5 6
6 1 5 6 8
7 1 6 8 7
8 1 6 8 9
9 1 7 8 9
10 1 8 9 38
11 1 10 11 12
12 1 11 12 14
13 1 12 14 13
14 1 12 14 15
15 1 13 14 15
16 1 14 15 17
17 1 15 17 16
18 1 15 17 18
19 1 16 17 18
20 1 17 18 47
21 1 19 20 21
22 1 20 21 23
23 1 21 23 22
24 1 21 23 24
25 1 22 23 24
26 1 23 24 26
27 1 24 26 25
28 1 24 26 27
29 1 25 26 27
30 1 26 27 56
31 1 28 29 30
32 1 29 30 32
33 1 30 32 31
34 1 30 32 33
35 1 31 32 33
36 1 32 33 35
37 1 33 35 34
38 1 33 35 36
39 1 34 35 36
40 1 35 36 65
41 1 9 38 37
42 1 9 38 39
43 1 37 38 39
44 1 38 39 41
45 1 39 41 40
46 1 39 41 42
47 1 40 41 42
48 1 41 42 44
49 1 42 44 43
50 1 42 44 45
51 1 43 44 45
52 1 44 45 74
53 1 18 47 46
54 1 18 47 48
55 1 46 47 48
56 1 47 48 50
57 1 48 50 49
58 1 48 50 51
59 1 49 50 51
60 1 50 51 53
61 1 51 53 52
62 1 51 53 54
63 1 52 53 54
64 1 53 54 83
65 1 27 56 55
66 1 27 56 57
67 1 55 56 57
68 1 56 57 59
69 1 57 59 58
70 1 57 59 60
71 1 58 59 60
72 1 59 60 62
73 1 60 62 61
74 1 60 62 63
75 1 61 62 63
76 1 62 63 92
77 1 36 65 64
78 1 36 65 66
79 1 64 65 66
80 1 65 66 68
81 1 66 68 67
82 1 66 68 69
83 1 67 68 69
84 1 68 69 71
85 1 69 71 70
86 1 69 71 72
87 1 70 71 72
88 1 71 72 101
89 1 45 74 73
90 1 45 74 75
91 1 73 74 75
92 1 74 75 77
93 1 75 77 76
94 1 75 77 78
95 1 76 77 78
96 1 77 78 80
97 1 78 80 79
98 1 78 80 81
99 1 79 80 81
100 1 80 81 110
101 1 54 83 82
102 1 54 83 84
103 1 82 83 84
104 1 83 84 86
105 1 84 86 85
106 1 84 86 87
107 1 85 86 87
108 1 86 87 89
109 1 87 89 88
110 1 87 89 90
111 1 88 89 90
112 1 89 90 119
113 1 63 92 91
114 1 63 92 93
115 1 91 92 93
116 1 92 93 95
117 1 93 95 94
118 1 93 95 96
119 1 94 95 96
120 1 95 96 98
121 1 96 98 97
122 1 96 98 99
123 1 97 98 99
124 1 98 99 128
125 1 72 101 100
126 1 72 101 102