216 atoms
4 atom types
144 bonds
2  bond_types
7  angle types
  dihedrals
  dihedral types
  impropers
  improper types

-7.398681 3.876825  xlo xhi
-11.064058 11.064058  ylo yhi
-2.84269933428 16.2842130204  zlo zhi

Masses

1 12.0112
2 12.0112
3 12.0112
4 1.00797

Pair Coeffs # lj/class2/coul/long

Bond Coeffs class2

Angle Coeffs class2

BondBond Coeffs

BondAngle Coeffs

Dihedral Coeffs class2

AngleAngleTorsion Coeffs

EndBondTorsion Coeffs

MiddleBondTorsion Coeffs

BondBond13 Coeffs

AngleTorsion Coeffs

Improper Coeffs class2

AngleAngle Coeffs

Atoms full

0 1.0 0.53 -0.482001 4.760698 1.36272887071
1 1.0 -0.106 -0.507195 3.308176 1.86941668912
2 1.0 -0.106 -0.676923 3.328956 3.37778844144
3 1.0 0.53 -2.046681 1.223942 3.49878042572
4 1.0 -0.106 -0.759798 1.928384 4.00599968914
5 1.0 -0.106 -0.692172 1.774612 5.51507108768
6 1.0 0.53 1.839825 1.656166 5.63874841658
7 1.0 -0.106 0.578136 2.402168 6.14421430392
8 1.0 -0.106 0.680238 2.537238 7.65283577851
9 2.0 0.53 -0.482001 -4.760698 -1.84269933428
10 2.0 -0.106 -0.507195 -3.308176 -1.33601151588
11 2.0 -0.106 -0.676923 -3.328956 0.172360236447
12 2.0 0.53 -2.046681 -1.223942 0.293352220721
13 2.0 -0.106 -0.759798 -1.928384 0.800571484142
14 2.0 -0.106 -0.692172 -1.774612 2.30964288268
15 2.0 0.53 1.839825 -1.656166 2.43332021159
16 2.0 -0.106 0.578136 -2.402168 2.93878609892
17 2.0 -0.106 0.680238 -2.537238 4.44740757351
18 3.0 0.53 -3.797001 -5.629302 1.89913358976
19 3.0 -0.106 -3.822195 -7.081824 2.40582140817
20 3.0 -0.106 -3.991923 -7.061044 3.91419316049
21 3.0 0.53 -5.361681 -9.166058 4.03518514476
22 3.0 -0.106 -4.074798 -8.461616 4.54240440818
23 3.0 -0.106 -4.007172 -8.615388 6.05147580673
24 3.0 0.53 -1.475175 -8.733834 6.17515313563
25 3.0 -0.106 -2.736864 -7.987832 6.68061902297
26 3.0 -0.106 -2.634762 -7.852762 8.18924049756
27 4.0 0.53 -3.797001 5.629302 -1.30629461524
28 4.0 -0.106 -3.822195 7.081824 -0.799606796829
29 4.0 -0.106 -3.991923 7.061044 0.708764955495
30 4.0 0.53 -5.361681 9.166058 0.829756939768
31 4.0 -0.106 -4.074798 8.461616 1.33697620319
32 4.0 -0.106 -4.007172 8.615388 2.84604760173
33 4.0 0.53 -1.475175 8.733834 2.96972493063
34 4.0 -0.106 -2.736864 7.987832 3.47519081797
35 4.0 -0.106 -2.634762 7.852762 4.98381229256
36 5.0 0.53 -0.482001 4.760698 7.7735852807
37 5.0 -0.106 -0.507195 3.308176 8.28027309911
38 5.0 -0.106 -0.676923 3.328956 9.78864485144
39 5.0 0.53 -2.046681 1.223942 9.90963683571
40 5.0 -0.106 -0.759798 1.928384 10.4168560991
41 5.0 -0.106 -0.692172 1.774612 11.9259274977
42 5.0 0.53 1.839825 1.656166 12.0496048266
43 5.0 -0.106 0.578136 2.402168 12.5550707139
44 5.0 -0.106 0.680238 2.537238 14.0636921885
45 6.0 0.53 -0.482001 -4.760698 4.56815707571
46 6.0 -0.106 -0.507195 -3.308176 5.07484489412
47 6.0 -0.106 -0.676923 -3.328956 6.58321664644
48 6.0 0.53 -2.046681 -1.223942 6.70420863071
49 6.0 -0.106 -0.759798 -1.928384 7.21142789413
50 6.0 -0.106 -0.692172 -1.774612 8.72049929267
51 6.0 0.53 1.839825 -1.656166 8.84417662158
52 6.0 -0.106 0.578136 -2.402168 9.34964250892
53 6.0 -0.106 0.680238 -2.537238 10.8582639835
54 7.0 0.53 -3.797001 -5.629302 8.30998999975
55 7.0 -0.106 -3.822195 -7.081824 8.81667781816
56 7.0 -0.106 -3.991923 -7.061044 10.3250495705
57 7.0 0.53 -5.361681 -9.166058 10.4460415548
58 7.0 -0.106 -4.074798 -8.461616 10.9532608182
59 7.0 -0.106 -4.007172 -8.615388 12.4623322167
60 7.0 0.53 -1.475175 -8.733834 12.5860095456
61 7.0 -0.106 -2.736864 -7.987832 13.091475433
62 7.0 -0.106 -2.634762 -7.852762 14.6000969076
63 8.0 0.53 -3.797001 5.629302 5.10456179476
64 8.0 -0.106 -3.822195 7.081824 5.61124961316
65 8.0 -0.106 -3.991923 7.061044 7.11962136549
66 8.0 0.53 -5.361681 9.166058 7.24061334976
67 8.0 -0.106 -4.074798 8.461616 7.74783261318
68 8.0 -0.106 -4.007172 8.615388 9.25690401172
69 8.0 0.53 -1.475175 8.733834 9.38058134062
70 8.0 -0.106 -2.736864 7.987832 9.88604722796
71 8.0 -0.106 -2.634762 7.852762 11.3946687026
72 1.0 0 -1.19822985059 2.64348325371 1.33029296649
73 1.0 0.53 0.165096989681 3.87576876457 3.8272304705
74 1.0 0.53 -1.58835925693 3.89093162922 3.62971569624
75 1.0 0.53 0.0845568735757 1.3553447416 3.59527976534
76 1.0 0.53 -1.5830299151 2.23758219877 5.96454941882
77 1.0 0.53 -0.729765193127 0.705261360994 5.77017099495
78 1.0 0.53 0.645721459293 3.42181123077 5.73707810112
79 1.0 0.53 -0.118786520685 2.85902202607 8.3369518914
80 1.0 0.53 1.52992611341 2.23250922467 8.28146164769
81 1.0 0.53 -1.519001 4.760698 0.992728870712
82 1.0 0.53 0.036499 5.658698 0.992728870712
83 1.0 0.53 0.036499 3.862698 0.992728870712
84 1.0 0.53 -3.083681 1.223942 3.12878042572
85 1.0 0.53 -1.528181 2.121942 3.12878042572
86 1.0 0.53 -1.528181 0.325942 3.12878042572
87 1.0 0.53 2.876825 1.656166 5.26874841658
88 1.0 0.53 1.321325 2.554166 5.26874841658
89 1.0 0.53 1.321325 0.758166 5.26874841658
90 2.0 0.53 0.183839850589 -3.97286874629 -0.796887793243
91 2.0 0.53 -1.58835925693 -3.89093162922 0.424287491245
92 2.0 0.53 0.165096989681 -3.87576876457 0.6218022655
93 2.0 0.53 -1.60415287358 -2.5014232584 1.21129140794
94 2.0 0.53 -0.729765193127 -0.705261360994 2.56474278995
95 2.0 0.53 -1.5830299151 -2.23758219877 2.75912121382
96 2.0 0.53 0.510550540707 -1.38252476923 3.34592230172
97 2.0 0.53 1.52992611341 -2.23250922467 5.0760334427
98 2.0 0.53 -0.118786520685 -2.85902202607 5.1315236864
99 2.0 0.53 -1.519001 -4.760698 -1.47269933428
100 2.0 0.53 0.036499 -5.658698 -1.47269933428
101 2.0 0.53 0.036499 -3.862698 -1.47269933428
102 2.0 0.53 -3.083681 -1.223942 -0.0766477792792
103 2.0 0.53 -1.528181 -2.121942 -0.0766477792792
104 2.0 0.53 -1.528181 -0.325942 -0.0766477792792
105 2.0 0.53 2.876825 -1.656166 2.06332021159
106 2.0 0.53 1.321325 -2.554166 2.06332021159
107 2.0 0.53 1.321325 -0.758166 2.06332021159
108 3.0 0.53 -4.51322985059 -7.74651674629 1.86669768553
109 3.0 0.53 -3.14990301032 -6.51423123543 4.36363518954
110 3.0 0.53 -4.90335925693 -6.49906837078 4.16612041529
111 3.0 0.53 -3.23044312642 -9.0346552584 4.13168448439
112 3.0 0.53 -4.8980299151 -8.15241780123 6.50095413786
113 3.0 0.53 -4.04476519313 -9.68473863901 6.30657571399
114 3.0 0.53 -2.66927854071 -6.96818876923 6.27348282017
115 3.0 0.53 -3.43378652069 -7.53097797393 8.87335661044
116 3.0 0.53 -1.78507388659 -8.15749077533 8.81786636674
117 3.0 0.53 -4.834001 -5.629302 1.52913358976
118 3.0 0.53 -3.278501 -6.527302 1.52913358976
119 3.0 0.53 -3.278501 -4.731302 1.52913358976
120 3.0 0.53 -6.398681 -9.166058 3.66518514476
121 3.0 0.53 -4.843181 -10.064058 3.66518514476
122 3.0 0.53 -4.843181 -8.268058 3.66518514476
123 3.0 0.53 -2.512175 -8.733834 5.80515313563
124 3.0 0.53 -0.956675 -9.631834 5.80515313563
125 3.0 0.53 -0.956675 -7.835834 5.80515313563
126 4.0 0.53 -3.13116014941 6.41713125371 -0.260483074196
127 4.0 0.53 -4.90335925693 6.49906837078 0.960692210292
128 4.0 0.53 -3.14990301032 6.51423123543 1.15820698455
129 4.0 0.53 -4.91915287358 7.8885767416 1.74769612698
130 4.0 0.53 -4.04476519313 9.68473863901 3.101147509
131 4.0 0.53 -4.8980299151 8.15241780123 3.29552593287
132 4.0 0.53 -2.80444945929 9.00747523077 3.88232702077
133 4.0 0.53 -1.78507388659 8.15749077533 5.61243816174
134 4.0 0.53 -3.43378652069 7.53097797393 5.66792840545
135 4.0 0.53 -4.834001 5.629302 -0.936294615237
136 4.0 0.53 -3.278501 6.527302 -0.936294615237
137 4.0 0.53 -3.278501 4.731302 -0.936294615237
138 4.0 0.53 -6.398681 9.166058 0.459756939768
139 4.0 0.53 -4.843181 10.064058 0.459756939768
140 4.0 0.53 -4.843181 8.268058 0.459756939768
141 4.0 0.53 -2.512175 8.733834 2.59972493063
142 4.0 0.53 -0.956675 9.631834 2.59972493063
143 4.0 0.53 -0.956675 7.835834 2.59972493063
144 5.0 0.53 -1.19822985059 2.64348325371 7.74114937648
145 5.0 0.53 0.165096989681 3.87576876457 10.2380868805
146 5.0 0.53 -1.58835925693 3.89093162922 10.0405721062
147 5.0 0.53 0.0845568735757 1.3553447416 10.0061361753
148 5.0 0.53 -1.5830299151 2.23758219877 12.3754058288
149 5.0 0.53 -0.729765193127 0.705261360994 12.1810274049
150 5.0 0.53 0.645721459293 3.42181123077 12.1479345111
151 5.0 0.53 -0.118786520685 2.85902202607 14.7478083014
152 5.0 0.53 1.52992611341 2.23250922467 14.6923180577
153 5.0 0.53 -1.519001 4.760698 7.4035852807
154 5.0 0.53 0.036499 5.658698 7.4035852807
155 5.0 0.53 0.036499 3.862698 7.4035852807
156 5.0 0.53 -3.083681 1.223942 9.53963683571
157 5.0 0.53 -1.528181 2.121942 9.53963683571
158 5.0 0.53 -1.528181 0.325942 9.53963683571
159 5.0 0.53 2.876825 1.656166 11.6796048266
160 5.0 0.53 1.321325 2.554166 11.6796048266
161 5.0 0.53 1.321325 0.758166 11.6796048266
162 6.0 0.53 0.183839850589 -3.97286874629 5.61396861675
163 6.0 0.53 -1.58835925693 -3.89093162922 6.83514390124
164 6.0 0.53 0.165096989681 -3.87576876457 7.03265867549
165 6.0 0.53 -1.60415287358 -2.5014232584 7.62214781793
166 6.0 0.53 -0.729765193127 -0.705261360994 8.97559919994
167 6.0 0.53 -1.5830299151 -2.23758219877 9.16997762381
168 6.0 0.53 0.510550540707 -1.38252476923 9.75677871171
169 6.0 0.53 1.52992611341 -2.23250922467 11.4868898527
170 6.0 0.53 -0.118786520685 -2.85902202607 11.5423800964
171 6.0 0.53 -1.519001 -4.760698 4.19815707571
172 6.0 0.53 0.036499 -5.658698 4.19815707571
173 6.0 0.53 0.036499 -3.862698 4.19815707571
174 6.0 0.53 -3.083681 -1.223942 6.33420863071
175 6.0 0.53 -1.528181 -2.121942 6.33420863071
176 6.0 0.53 -1.528181 -0.325942 6.33420863071
177 6.0 0.53 2.876825 -1.656166 8.47417662158
178 6.0 0.53 1.321325 -2.554166 8.47417662158
179 6.0 0.53 1.321325 -0.758166 8.47417662158
180 7.0 0.53 -4.51322985059 -7.74651674629 8.27755409553
181 7.0 0.53 -3.14990301032 -6.51423123543 10.7744915995
182 7.0 0.53 -4.90335925693 -6.49906837078 10.5769768253
183 7.0 0.53 -3.23044312642 -9.0346552584 10.5425408944
184 7.0 0.53 -4.8980299151 -8.15241780123 12.9118105479
185 7.0 0.53 -4.04476519313 -9.68473863901 12.717432124
186 7.0 0.53 -2.66927854071 -6.96818876923 12.6843392302
187 7.0 0.53 -3.43378652069 -7.53097797393 15.2842130204
188 7.0 0.53 -1.78507388659 -8.15749077533 15.2287227767
189 7.0 0.53 -4.834001 -5.629302 7.93998999975
190 7.0 0.53 -3.278501 -6.527302 7.93998999975
191 7.0 0.53 -3.278501 -4.731302 7.93998999975
192 7.0 0.53 -6.398681 -9.166058 10.0760415548
193 7.0 0.53 -4.843181 -10.064058 10.0760415548
194 7.0 0.53 -4.843181 -8.268058 10.0760415548
195 7.0 0.53 -2.512175 -8.733834 12.2160095456
196 7.0 0.53 -0.956675 -9.631834 12.2160095456
197 7.0 0.53 -0.956675 -7.835834 12.2160095456
198 8.0 0.53 -3.13116014941 6.41713125371 6.1503733358
199 8.0 0.53 -4.90335925693 6.49906837078 7.37154862028
200 8.0 0.53 -3.14990301032 6.51423123543 7.56906339454
201 8.0 0.53 -4.91915287358 7.8885767416 8.15855253698
202 8.0 0.53 -4.04476519313 9.68473863901 9.51200391899
203 8.0 0.53 -4.8980299151 8.15241780123 9.70638234286
204 8.0 0.53 -2.80444945929 9.00747523077 10.2931834308
205 8.0 0.53 -1.78507388659 8.15749077533 12.0232945717
206 8.0 0.53 -3.43378652069 7.53097797393 12.0787848154
207 8.0 0.53 -4.834001 5.629302 4.73456179476
208 8.0 0.53 -3.278501 6.527302 4.73456179476
209 8.0 0.53 -3.278501 4.731302 4.73456179476
210 8.0 0.53 -6.398681 9.166058 6.87061334976
211 8.0 0.53 -4.843181 10.064058 6.87061334976
212 8.0 0.53 -4.843181 8.268058 6.87061334976
213 8.0 0.53 -2.512175 8.733834 9.01058134062
214 8.0 0.53 -0.956675 9.631834 9.01058134062
215 8.0 0.53 -0.956675 7.835834 9.01058134062


Velocities



bonds

1 1 0 1
2 1 1 0
3 1 1 2
4 1 2 1
5 1 2 4
6 1 3 4
7 1 4 2
8 1 4 3
9 1 4 5
10 1 5 4
11 1 5 7
12 1 6 7
13 1 7 5
14 1 7 6
15 1 7 8
16 1 8 7
17 1 8 37
18 1 9 10
19 1 10 9
20 1 10 11
21 1 11 10
22 1 11 13
23 1 12 13
24 1 13 11
25 1 13 12
26 1 13 14
27 1 14 13
28 1 14 16
29 1 15 16
30 1 16 14
31 1 16 15
32 1 16 17
33 1 17 16
34 1 17 46
35 1 18 19
36 1 19 18
37 1 19 20
38 1 20 19
39 1 20 22
40 1 21 22
41 1 22 20
42 1 22 21
43 1 22 23
44 1 23 22
45 1 23 25
46 1 24 25
47 1 25 23
48 1 25 24
49 1 25 26
50 1 26 25
51 1 26 55
52 1 27 28
53 1 28 27
54 1 28 29
55 1 29 28
56 1 29 31
57 1 30 31
58 1 31 29
59 1 31 30
60 1 31 32
61 1 32 31
62 1 32 34
63 1 33 34
64 1 34 32
65 1 34 33
66 1 34 35
67 1 35 34
68 1 35 64
69 1 36 37
70 1 37 8
71 1 37 36
72 1 37 38
73 1 38 37
74 1 38 40
75 1 39 40
76 1 40 38
77 1 40 39
78 1 40 41
79 1 41 40
80 1 41 43
81 1 42 43
82 1 43 41
83 1 43 42
84 1 43 44
85 1 44 43
86 1 45 46
87 1 46 17
88 1 46 45
89 1 46 47
90 1 47 46
91 1 47 49
92 1 48 49
93 1 49 47
94 1 49 48
95 1 49 50
96 1 50 49
97 1 50 52
98 1 51 52
99 1 52 50
100 1 52 51
101 1 52 53
102 1 53 52
103 1 54 55
104 1 55 26
105 1 55 54
106 1 55 56
107 1 56 55
108 1 56 58
109 1 57 58
110 1 58 56
111 1 58 57
112 1 58 59
113 1 59 58
114 1 59 61
115 1 60 61
116 1 61 59
117 1 61 60
118 1 61 62
119 1 62 61
120 1 63 64
121 1 64 35
122 1 64 63
123 1 64 65
124 1 65 64
125 1 65 67
126 1 66 67
127 1 67 65
128 1 67 66
129 1 67 68
130 1 68 67
131 1 68 70
132 1 69 70
133 1 70 68
134 1 70 69
135 1 70 71
136 1 71 70
137 2 144 9
138 2 144 10
139 2 144 11
140 2 145 0
141 2 145 11
142 2 146 1
143 2 146 2
144 2 147 12
145 2 147 13
146 2 147 14
147 2 148 3
148 2 148 13
149 2 149 4
150 2 149 5
151 2 150 15
152 2 150 16
153 2 150 17
154 2 151 6
155 2 151 16
156 2 152 7
157 2 152 8
158 2 153 27
159 2 153 28
160 2 153 29
161 2 154 18
162 2 155 19
163 2 155 20
164 2 156 30
165 2 156 31
166 2 156 32
167 2 157 21
168 2 157 31
169 2 158 22
170 2 158 23
171 2 159 33
172 2 159 34
173 2 159 35
174 2 160 24
175 2 160 34
176 2 161 25
177 2 161 26
178 2 162 45
179 2 162 46
180 2 162 47
181 2 163 36
182 2 163 46
183 2 164 37
184 2 164 38
185 2 165 48
186 2 165 49
187 2 165 50
188 2 166 39
189 2 166 50
190 2 167 40
191 2 167 41
192 2 168 51
193 2 168 52
194 2 168 53
195 2 169 42
196 2 169 51
197 2 170 43
198 2 170 44
199 2 171 63
200 2 171 64
201 2 171 65
202 2 172 54
203 2 173 55
204 2 173 56
205 2 174 66
206 2 174 67
207 2 174 68
208 2 175 57
209 2 175 68
210 2 176 58
211 2 176 59
212 2 177 69
213 2 177 70
214 2 177 71
215 2 178 60
216 2 178 69
217 2 179 61
218 2 179 62
219 2 180 81
220 2 180 82
221 2 180 83
222 2 181 72
223 2 181 83
224 2 182 73
225 2 182 74
226 2 183 84
227 2 183 85
228 2 183 86
229 2 184 75
230 2 184 85
231 2 185 76
232 2 185 77
233 2 186 87
234 2 186 88
235 2 186 89
236 2 187 78
237 2 187 88
238 2 188 79
239 2 188 80
240 2 189 99
241 2 189 100
242 2 189 101
243 2 190 90
244 2 190 101
245 2 191 91
246 2 191 92
247 2 192 102
248 2 192 103
249 2 192 104
250 2 193 93
251 2 193 103
252 2 194 94
253 2 194 95
254 2 195 105
255 2 195 106
256 2 195 107
257 2 196 96
258 2 196 106
259 2 197 97
260 2 197 98
261 2 198 117
262 2 198 118
263 2 198 119
264 2 199 108
265 2 199 118
266 2 200 109
267 2 200 110
268 2 201 120
269 2 201 121
270 2 201 122
271 2 202 111
272 2 202 122
273 2 203 112
274 2 203 113
275 2 204 123
276 2 204 124
277 2 204 125
278 2 205 114
279 2 205 123
280 2 206 115
281 2 206 116
282 2 207 135
283 2 207 136
284 2 207 137
285 2 208 126
286 2 208 136
287 2 209 127
288 2 209 128
289 2 210 138
290 2 210 139
291 2 210 140
292 2 211 129
293 2 211 140
294 2 212 130
295 2 212 131
296 2 213 141
297 2 213 142
298 2 213 143
299 2 214 132
300 2 214 141


Angles



Dihedrals



Impropers

