LAMMPS data file via write_data, version 7 Aug 2019, timestep = 1000000

1728 atoms
4 atom types
1152 bonds
2  bond types
1670  angles
7  angle types
-7.398681 10.506825  xlo xhi
-11.064058 31.844058  ylo yhi
-3.91550877238 29.1059258404  zlo zhi

Masses

1 12.0112
2 12.0112
3 12.0112
4 1.00797

Atoms #full

1 1 1 0.53 -0.482001 4.760698 1.36272887071
2 1 1 -0.106 -0.507195 3.308176 1.86941668912
3 1 1 -0.106 -0.676923 3.328956 3.37778844144
4 1 1 0.53 -2.046681 1.223942 3.49878042572
5 1 1 -0.106 -0.759798 1.928384 4.00599968914
6 1 1 -0.106 -0.692172 1.774612 5.51507108768
7 1 1 0.53 1.839825 1.656166 5.63874841658
8 1 1 -0.106 0.578136 2.402168 6.14421430392
9 1 1 -0.106 0.680238 2.537238 7.65283577851
10 1 1 0.53 -0.482001 -4.760698 -1.84269933428
11 1 1 -0.106 -0.507195 -3.308176 -1.33601151588
12 1 1 -0.106 -0.676923 -3.328956 0.172360236447
13 1 1 0.53 -2.046681 -1.223942 0.293352220721
14 1 1 -0.106 -0.759798 -1.928384 0.800571484142
15 1 1 -0.106 -0.692172 -1.774612 2.30964288268
16 1 1 0.53 1.839825 -1.656166 2.43332021159
17 1 1 -0.106 0.578136 -2.402168 2.93878609892
18 1 1 -0.106 0.680238 -2.537238 4.44740757351
19 1 1 0.53 -3.797001 -5.629302 1.89913358976
20 1 1 -0.106 -3.822195 -7.081824 2.40582140817
21 1 1 -0.106 -3.991923 -7.061044 3.91419316049
22 1 1 0.53 -5.361681 -9.166058 4.03518514476
23 1 1 -0.106 -4.074798 -8.461616 4.54240440818
24 1 1 -0.106 -4.007172 -8.615388 6.05147580673
25 1 1 0.53 -1.475175 -8.733834 6.17515313563
26 1 1 -0.106 -2.736864 -7.987832 6.68061902297
27 1 1 -0.106 -2.634762 -7.852762 8.18924049756
28 1 1 0.53 -3.797001 5.629302 -1.30629461524
29 1 1 -0.106 -3.822195 7.081824 -0.799606796829
30 1 1 -0.106 -3.991923 7.061044 0.708764955495
31 1 1 0.53 -5.361681 9.166058 0.829756939768
32 1 1 -0.106 -4.074798 8.461616 1.33697620319
33 1 1 -0.106 -4.007172 8.615388 2.84604760173
34 1 1 0.53 -1.475175 8.733834 2.96972493063
35 1 1 -0.106 -2.736864 7.987832 3.47519081797
36 1 1 -0.106 -2.634762 7.852762 4.98381229256
37 2 1 0.53 6.147999 4.760698 0.289919432617
38 2 1 -0.106 6.122805 3.308176 0.796607251026
39 2 1 -0.106 5.953077 3.328956 2.30497900335
40 2 1 0.53 4.583319 1.223942 2.42597098762
41 2 1 -0.106 5.870202 1.928384 2.93319025104
42 2 1 -0.106 5.937828 1.774612 4.44226164958
43 2 1 0.53 8.469825 1.656166 4.56593897849
44 2 1 -0.106 7.208136 2.402168 5.07140486583
45 2 1 -0.106 7.310238 2.537238 6.58002634042
46 2 1 0.53 6.147999 -4.760698 -2.91550877238
47 2 1 -0.106 6.122805 -3.308176 -2.40882095397
48 2 1 -0.106 5.953077 -3.328956 -0.900449201647
49 2 1 0.53 4.583319 -1.223942 -0.779457217374
50 2 1 -0.106 5.870202 -1.928384 -0.272237953953
51 2 1 -0.106 5.937828 -1.774612 1.23683344459
52 2 1 0.53 8.469825 -1.656166 1.36051077349
53 2 1 -0.106 7.208136 -2.402168 1.86597666083
54 2 1 -0.106 7.310238 -2.537238 3.37459813542
55 2 1 0.53 2.832999 -5.629302 0.826324151665
56 2 1 -0.106 2.807805 -7.081824 1.33301197007
57 2 1 -0.106 2.638077 -7.061044 2.8413837224
58 2 1 0.53 1.268319 -9.166058 2.96237570667
59 2 1 -0.106 2.555202 -8.461616 3.46959497009
60 2 1 -0.106 2.622828 -8.615388 4.97866636863
61 2 1 0.53 5.154825 -8.733834 5.10234369753
62 2 1 -0.106 3.893136 -7.987832 5.60780958487
63 2 1 -0.106 3.995238 -7.852762 7.11643105946
64 2 1 0.53 2.832999 5.629302 -2.37910405333
65 2 1 -0.106 2.807805 7.081824 -1.87241623492
66 2 1 -0.106 2.638077 7.061044 -0.3640444826
67 2 1 0.53 1.268319 9.166058 -0.243052498326
68 2 1 -0.106 2.555202 8.461616 0.264166765095
69 2 1 -0.106 2.622828 8.615388 1.77323816364
70 2 1 0.53 5.154825 8.733834 1.89691549254
71 2 1 -0.106 3.893136 7.987832 2.40238137988
72 2 1 -0.106 3.995238 7.852762 3.91100285447
73 3 1 0.53 -0.482001 25.540698 1.36272887071
74 3 1 -0.106 -0.507195 24.088176 1.86941668912
75 3 1 -0.106 -0.676923 24.108956 3.37778844144
76 3 1 0.53 -2.046681 22.003942 3.49878042572
77 3 1 -0.106 -0.759798 22.708384 4.00599968914
78 3 1 -0.106 -0.692172 22.554612 5.51507108768
79 3 1 0.53 1.839825 22.436166 5.63874841658
80 3 1 -0.106 0.578136 23.182168 6.14421430392
81 3 1 -0.106 0.680238 23.317238 7.65283577851
82 3 1 0.53 -0.482001 16.019302 -1.84269933428
83 3 1 -0.106 -0.507195 17.471824 -1.33601151588
84 3 1 -0.106 -0.676923 17.451044 0.172360236447
85 3 1 0.53 -2.046681 19.556058 0.293352220721
86 3 1 -0.106 -0.759798 18.851616 0.800571484142
87 3 1 -0.106 -0.692172 19.005388 2.30964288268
88 3 1 0.53 1.839825 19.123834 2.43332021159
89 3 1 -0.106 0.578136 18.377832 2.93878609892
90 3 1 -0.106 0.680238 18.242762 4.44740757351
91 3 1 0.53 -3.797001 15.150698 1.89913358976
92 3 1 -0.106 -3.822195 13.698176 2.40582140817
93 3 1 -0.106 -3.991923 13.718956 3.91419316049
94 3 1 0.53 -5.361681 11.613942 4.03518514476
95 3 1 -0.106 -4.074798 12.318384 4.54240440818
96 3 1 -0.106 -4.007172 12.164612 6.05147580673
97 3 1 0.53 -1.475175 12.046166 6.17515313563
98 3 1 -0.106 -2.736864 12.792168 6.68061902297
99 3 1 -0.106 -2.634762 12.927238 8.18924049756
100 3 1 0.53 -3.797001 26.409302 -1.30629461524
101 3 1 -0.106 -3.822195 27.861824 -0.799606796829
102 3 1 -0.106 -3.991923 27.841044 0.708764955495
103 3 1 0.53 -5.361681 29.946058 0.829756939768
104 3 1 -0.106 -4.074798 29.241616 1.33697620319
105 3 1 -0.106 -4.007172 29.395388 2.84604760173
106 3 1 0.53 -1.475175 29.513834 2.96972493063
107 3 1 -0.106 -2.736864 28.767832 3.47519081797
108 3 1 -0.106 -2.634762 28.632762 4.98381229256
109 4 1 0.53 6.147999 25.540698 0.289919432617
110 4 1 -0.106 6.122805 24.088176 0.796607251026
111 4 1 -0.106 5.953077 24.108956 2.30497900335
112 4 1 0.53 4.583319 22.003942 2.42597098762
113 4 1 -0.106 5.870202 22.708384 2.93319025104
114 4 1 -0.106 5.937828 22.554612 4.44226164958
115 4 1 0.53 8.469825 22.436166 4.56593897849
116 4 1 -0.106 7.208136 23.182168 5.07140486583
117 4 1 -0.106 7.310238 23.317238 6.58002634042
118 4 1 0.53 6.147999 16.019302 -2.91550877238
119 4 1 -0.106 6.122805 17.471824 -2.40882095397
120 4 1 -0.106 5.953077 17.451044 -0.900449201647
121 4 1 0.53 4.583319 19.556058 -0.779457217374
122 4 1 -0.106 5.870202 18.851616 -0.272237953953
123 4 1 -0.106 5.937828 19.005388 1.23683344459
124 4 1 0.53 8.469825 19.123834 1.36051077349
125 4 1 -0.106 7.208136 18.377832 1.86597666083
126 4 1 -0.106 7.310238 18.242762 3.37459813542
127 4 1 0.53 2.832999 15.150698 0.826324151665
128 4 1 -0.106 2.807805 13.698176 1.33301197007
129 4 1 -0.106 2.638077 13.718956 2.8413837224
130 4 1 0.53 1.268319 11.613942 2.96237570667
131 4 1 -0.106 2.555202 12.318384 3.46959497009
132 4 1 -0.106 2.622828 12.164612 4.97866636863
133 4 1 0.53 5.154825 12.046166 5.10234369753
134 4 1 -0.106 3.893136 12.792168 5.60780958487
135 4 1 -0.106 3.995238 12.927238 7.11643105946
136 4 1 0.53 2.832999 26.409302 -2.37910405333
137 4 1 -0.106 2.807805 27.861824 -1.87241623492
138 4 1 -0.106 2.638077 27.841044 -0.3640444826
139 4 1 0.53 1.268319 29.946058 -0.243052498326
140 4 1 -0.106 2.555202 29.241616 0.264166765095
141 4 1 -0.106 2.622828 29.395388 1.77323816364
142 4 1 0.53 5.154825 29.513834 1.89691549254
143 4 1 -0.106 3.893136 28.767832 2.40238137988
144 4 1 -0.106 3.995238 28.632762 3.91100285447
145 5 1 0.53 -0.482001 4.760698 7.7735852807
146 5 1 -0.106 -0.507195 3.308176 8.28027309911
147 5 1 -0.106 -0.676923 3.328956 9.78864485144
148 5 1 0.53 -2.046681 1.223942 9.90963683571
149 5 1 -0.106 -0.759798 1.928384 10.4168560991
150 5 1 -0.106 -0.692172 1.774612 11.9259274977
151 5 1 0.53 1.839825 1.656166 12.0496048266
152 5 1 -0.106 0.578136 2.402168 12.5550707139
153 5 1 -0.106 0.680238 2.537238 14.0636921885
154 5 1 0.53 -0.482001 -4.760698 4.56815707571
155 5 1 -0.106 -0.507195 -3.308176 5.07484489412
156 5 1 -0.106 -0.676923 -3.328956 6.58321664644
157 5 1 0.53 -2.046681 -1.223942 6.70420863071
158 5 1 -0.106 -0.759798 -1.928384 7.21142789413
159 5 1 -0.106 -0.692172 -1.774612 8.72049929267
160 5 1 0.53 1.839825 -1.656166 8.84417662158
161 5 1 -0.106 0.578136 -2.402168 9.34964250892
162 5 1 -0.106 0.680238 -2.537238 10.8582639835
163 5 1 0.53 -3.797001 -5.629302 8.30998999975
164 5 1 -0.106 -3.822195 -7.081824 8.81667781816
165 5 1 -0.106 -3.991923 -7.061044 10.3250495705
166 5 1 0.53 -5.361681 -9.166058 10.4460415548
167 5 1 -0.106 -4.074798 -8.461616 10.9532608182
168 5 1 -0.106 -4.007172 -8.615388 12.4623322167
169 5 1 0.53 -1.475175 -8.733834 12.5860095456
170 5 1 -0.106 -2.736864 -7.987832 13.091475433
171 5 1 -0.106 -2.634762 -7.852762 14.6000969076
172 5 1 0.53 -3.797001 5.629302 5.10456179476
173 5 1 -0.106 -3.822195 7.081824 5.61124961316
174 5 1 -0.106 -3.991923 7.061044 7.11962136549
175 5 1 0.53 -5.361681 9.166058 7.24061334976
176 5 1 -0.106 -4.074798 8.461616 7.74783261318
177 5 1 -0.106 -4.007172 8.615388 9.25690401172
178 5 1 0.53 -1.475175 8.733834 9.38058134062
179 5 1 -0.106 -2.736864 7.987832 9.88604722796
180 5 1 -0.106 -2.634762 7.852762 11.3946687026
181 6 1 0.53 6.147999 4.760698 6.70077584261
182 6 1 -0.106 6.122805 3.308176 7.20746366102
183 6 1 -0.106 5.953077 3.328956 8.71583541334
184 6 1 0.53 4.583319 1.223942 8.83682739761
185 6 1 -0.106 5.870202 1.928384 9.34404666104
186 6 1 -0.106 5.937828 1.774612 10.8531180596
187 6 1 0.53 8.469825 1.656166 10.9767953885
188 6 1 -0.106 7.208136 2.402168 11.4822612758
189 6 1 -0.106 7.310238 2.537238 12.9908827504
190 6 1 0.53 6.147999 -4.760698 3.49534763761
191 6 1 -0.106 6.122805 -3.308176 4.00203545602
192 6 1 -0.106 5.953077 -3.328956 5.51040720834
193 6 1 0.53 4.583319 -1.223942 5.63139919262
194 6 1 -0.106 5.870202 -1.928384 6.13861845604
195 6 1 -0.106 5.937828 -1.774612 7.64768985458
196 6 1 0.53 8.469825 -1.656166 7.77136718348
197 6 1 -0.106 7.208136 -2.402168 8.27683307082
198 6 1 -0.106 7.310238 -2.537238 9.78545454541
199 6 1 0.53 2.832999 -5.629302 7.23718056166
200 6 1 -0.106 2.807805 -7.081824 7.74386838006
201 6 1 -0.106 2.638077 -7.061044 9.25224013239
202 6 1 0.53 1.268319 -9.166058 9.37323211666
203 6 1 -0.106 2.555202 -8.461616 9.88045138008
204 6 1 -0.106 2.622828 -8.615388 11.3895227786
205 6 1 0.53 5.154825 -8.733834 11.5132001075
206 6 1 -0.106 3.893136 -7.987832 12.0186659949
207 6 1 -0.106 3.995238 -7.852762 13.5272874695
208 6 1 0.53 2.832999 5.629302 4.03175235666
209 6 1 -0.106 2.807805 7.081824 4.53844017507
210 6 1 -0.106 2.638077 7.061044 6.04681192739
211 6 1 0.53 1.268319 9.166058 6.16780391167
212 6 1 -0.106 2.555202 8.461616 6.67502317509
213 6 1 -0.106 2.622828 8.615388 8.18409457363
214 6 1 0.53 5.154825 8.733834 8.30777190253
215 6 1 -0.106 3.893136 7.987832 8.81323778987
216 6 1 -0.106 3.995238 7.852762 10.3218592645
217 7 1 0.53 -0.482001 25.540698 7.7735852807
218 7 1 -0.106 -0.507195 24.088176 8.28027309911
219 7 1 -0.106 -0.676923 24.108956 9.78864485144
220 7 1 0.53 -2.046681 22.003942 9.90963683571
221 7 1 -0.106 -0.759798 22.708384 10.4168560991
222 7 1 -0.106 -0.692172 22.554612 11.9259274977
223 7 1 0.53 1.839825 22.436166 12.0496048266
224 7 1 -0.106 0.578136 23.182168 12.5550707139
225 7 1 -0.106 0.680238 23.317238 14.0636921885
226 7 1 0.53 -0.482001 16.019302 4.56815707571
227 7 1 -0.106 -0.507195 17.471824 5.07484489412
228 7 1 -0.106 -0.676923 17.451044 6.58321664644
229 7 1 0.53 -2.046681 19.556058 6.70420863071
230 7 1 -0.106 -0.759798 18.851616 7.21142789413
231 7 1 -0.106 -0.692172 19.005388 8.72049929267
232 7 1 0.53 1.839825 19.123834 8.84417662158
233 7 1 -0.106 0.578136 18.377832 9.34964250892
234 7 1 -0.106 0.680238 18.242762 10.8582639835
235 7 1 0.53 -3.797001 15.150698 8.30998999975
236 7 1 -0.106 -3.822195 13.698176 8.81667781816
237 7 1 -0.106 -3.991923 13.718956 10.3250495705
238 7 1 0.53 -5.361681 11.613942 10.4460415548
239 7 1 -0.106 -4.074798 12.318384 10.9532608182
240 7 1 -0.106 -4.007172 12.164612 12.4623322167
241 7 1 0.53 -1.475175 12.046166 12.5860095456
242 7 1 -0.106 -2.736864 12.792168 13.091475433
243 7 1 -0.106 -2.634762 12.927238 14.6000969076
244 7 1 0.53 -3.797001 26.409302 5.10456179476
245 7 1 -0.106 -3.822195 27.861824 5.61124961316
246 7 1 -0.106 -3.991923 27.841044 7.11962136549
247 7 1 0.53 -5.361681 29.946058 7.24061334976
248 7 1 -0.106 -4.074798 29.241616 7.74783261318
249 7 1 -0.106 -4.007172 29.395388 9.25690401172
250 7 1 0.53 -1.475175 29.513834 9.38058134062
251 7 1 -0.106 -2.736864 28.767832 9.88604722796
252 7 1 -0.106 -2.634762 28.632762 11.3946687026
253 8 1 0.53 6.147999 25.540698 6.70077584261
254 8 1 -0.106 6.122805 24.088176 7.20746366102
255 8 1 -0.106 5.953077 24.108956 8.71583541334
256 8 1 0.53 4.583319 22.003942 8.83682739761
257 8 1 -0.106 5.870202 22.708384 9.34404666104
258 8 1 -0.106 5.937828 22.554612 10.8531180596
259 8 1 0.53 8.469825 22.436166 10.9767953885
260 8 1 -0.106 7.208136 23.182168 11.4822612758
261 8 1 -0.106 7.310238 23.317238 12.9908827504
262 8 1 0.53 6.147999 16.019302 3.49534763761
263 8 1 -0.106 6.122805 17.471824 4.00203545602
264 8 1 -0.106 5.953077 17.451044 5.51040720834
265 8 1 0.53 4.583319 19.556058 5.63139919262
266 8 1 -0.106 5.870202 18.851616 6.13861845604
267 8 1 -0.106 5.937828 19.005388 7.64768985458
268 8 1 0.53 8.469825 19.123834 7.77136718348
269 8 1 -0.106 7.208136 18.377832 8.27683307082
270 8 1 -0.106 7.310238 18.242762 9.78545454541
271 8 1 0.53 2.832999 15.150698 7.23718056166
272 8 1 -0.106 2.807805 13.698176 7.74386838006
273 8 1 -0.106 2.638077 13.718956 9.25224013239
274 8 1 0.53 1.268319 11.613942 9.37323211666
275 8 1 -0.106 2.555202 12.318384 9.88045138008
276 8 1 -0.106 2.622828 12.164612 11.3895227786
277 8 1 0.53 5.154825 12.046166 11.5132001075
278 8 1 -0.106 3.893136 12.792168 12.0186659949
279 8 1 -0.106 3.995238 12.927238 13.5272874695
280 8 1 0.53 2.832999 26.409302 4.03175235666
281 8 1 -0.106 2.807805 27.861824 4.53844017507
282 8 1 -0.106 2.638077 27.841044 6.04681192739
283 8 1 0.53 1.268319 29.946058 6.16780391167
284 8 1 -0.106 2.555202 29.241616 6.67502317509
285 8 1 -0.106 2.622828 29.395388 8.18409457363
286 8 1 0.53 5.154825 29.513834 8.30777190253
287 8 1 -0.106 3.893136 28.767832 8.81323778987
288 8 1 -0.106 3.995238 28.632762 10.3218592645
289 9 1 0.53 -0.482001 4.760698 14.1844416907
290 9 1 -0.106 -0.507195 3.308176 14.6911295091
291 9 1 -0.106 -0.676923 3.328956 16.1995012614
292 9 1 0.53 -2.046681 1.223942 16.3204932457
293 9 1 -0.106 -0.759798 1.928384 16.8277125091
294 9 1 -0.106 -0.692172 1.774612 18.3367839077
295 9 1 0.53 1.839825 1.656166 18.4604612366
296 9 1 -0.106 0.578136 2.402168 18.9659271239
297 9 1 -0.106 0.680238 2.537238 20.4745485985
298 9 1 0.53 -0.482001 -4.760698 10.9790134857
299 9 1 -0.106 -0.507195 -3.308176 11.4857013041
300 9 1 -0.106 -0.676923 -3.328956 12.9940730564
301 9 1 0.53 -2.046681 -1.223942 13.1150650407
302 9 1 -0.106 -0.759798 -1.928384 13.6222843041
303 9 1 -0.106 -0.692172 -1.774612 15.1313557027
304 9 1 0.53 1.839825 -1.656166 15.2550330316
305 9 1 -0.106 0.578136 -2.402168 15.7604989189
306 9 1 -0.106 0.680238 -2.537238 17.2691203935
307 9 1 0.53 -3.797001 -5.629302 14.7208464097
308 9 1 -0.106 -3.822195 -7.081824 15.2275342282
309 9 1 -0.106 -3.991923 -7.061044 16.7359059805
310 9 1 0.53 -5.361681 -9.166058 16.8568979647
311 9 1 -0.106 -4.074798 -8.461616 17.3641172282
312 9 1 -0.106 -4.007172 -8.615388 18.8731886267
313 9 1 0.53 -1.475175 -8.733834 18.9968659556
314 9 1 -0.106 -2.736864 -7.987832 19.502331843
315 9 1 -0.106 -2.634762 -7.852762 21.0109533175
316 9 1 0.53 -3.797001 5.629302 11.5154182047
317 9 1 -0.106 -3.822195 7.081824 12.0221060232
318 9 1 -0.106 -3.991923 7.061044 13.5304777755
319 9 1 0.53 -5.361681 9.166058 13.6514697598
320 9 1 -0.106 -4.074798 8.461616 14.1586890232
321 9 1 -0.106 -4.007172 8.615388 15.6677604217
322 9 1 0.53 -1.475175 8.733834 15.7914377506
323 9 1 -0.106 -2.736864 7.987832 16.296903638
324 9 1 -0.106 -2.634762 7.852762 17.8055251125
325 10 1 0.53 6.147999 4.760698 13.1116322526
326 10 1 -0.106 6.122805 3.308176 13.618320071
327 10 1 -0.106 5.953077 3.328956 15.1266918233
328 10 1 0.53 4.583319 1.223942 15.2476838076
329 10 1 -0.106 5.870202 1.928384 15.754903071
330 10 1 -0.106 5.937828 1.774612 17.2639744696
331 10 1 0.53 8.469825 1.656166 17.3876517985
332 10 1 -0.106 7.208136 2.402168 17.8931176858
333 10 1 -0.106 7.310238 2.537238 19.4017391604
334 10 1 0.53 6.147999 -4.760698 9.90620404761
335 10 1 -0.106 6.122805 -3.308176 10.412891866
336 10 1 -0.106 5.953077 -3.328956 11.9212636183
337 10 1 0.53 4.583319 -1.223942 12.0422556026
338 10 1 -0.106 5.870202 -1.928384 12.549474866
339 10 1 -0.106 5.937828 -1.774612 14.0585462646
340 10 1 0.53 8.469825 -1.656166 14.1822235935
341 10 1 -0.106 7.208136 -2.402168 14.6876894808
342 10 1 -0.106 7.310238 -2.537238 16.1963109554
343 10 1 0.53 2.832999 -5.629302 13.6480369716
344 10 1 -0.106 2.807805 -7.081824 14.1547247901
345 10 1 -0.106 2.638077 -7.061044 15.6630965424
346 10 1 0.53 1.268319 -9.166058 15.7840885267
347 10 1 -0.106 2.555202 -8.461616 16.2913077901
348 10 1 -0.106 2.622828 -8.615388 17.8003791886
349 10 1 0.53 5.154825 -8.733834 17.9240565175
350 10 1 -0.106 3.893136 -7.987832 18.4295224049
351 10 1 -0.106 3.995238 -7.852762 19.9381438794
352 10 1 0.53 2.832999 5.629302 10.4426087667
353 10 1 -0.106 2.807805 7.081824 10.9492965851
354 10 1 -0.106 2.638077 7.061044 12.4576683374
355 10 1 0.53 1.268319 9.166058 12.5786603217
356 10 1 -0.106 2.555202 8.461616 13.0858795851
357 10 1 -0.106 2.622828 8.615388 14.5949509836
358 10 1 0.53 5.154825 8.733834 14.7186283125
359 10 1 -0.106 3.893136 7.987832 15.2240941999
360 10 1 -0.106 3.995238 7.852762 16.7327156745
361 11 1 0.53 -0.482001 25.540698 14.1844416907
362 11 1 -0.106 -0.507195 24.088176 14.6911295091
363 11 1 -0.106 -0.676923 24.108956 16.1995012614
364 11 1 0.53 -2.046681 22.003942 16.3204932457
365 11 1 -0.106 -0.759798 22.708384 16.8277125091
366 11 1 -0.106 -0.692172 22.554612 18.3367839077
367 11 1 0.53 1.839825 22.436166 18.4604612366
368 11 1 -0.106 0.578136 23.182168 18.9659271239
369 11 1 -0.106 0.680238 23.317238 20.4745485985
370 11 1 0.53 -0.482001 16.019302 10.9790134857
371 11 1 -0.106 -0.507195 17.471824 11.4857013041
372 11 1 -0.106 -0.676923 17.451044 12.9940730564
373 11 1 0.53 -2.046681 19.556058 13.1150650407
374 11 1 -0.106 -0.759798 18.851616 13.6222843041
375 11 1 -0.106 -0.692172 19.005388 15.1313557027
376 11 1 0.53 1.839825 19.123834 15.2550330316
377 11 1 -0.106 0.578136 18.377832 15.7604989189
378 11 1 -0.106 0.680238 18.242762 17.2691203935
379 11 1 0.53 -3.797001 15.150698 14.7208464097
380 11 1 -0.106 -3.822195 13.698176 15.2275342282
381 11 1 -0.106 -3.991923 13.718956 16.7359059805
382 11 1 0.53 -5.361681 11.613942 16.8568979647
383 11 1 -0.106 -4.074798 12.318384 17.3641172282
384 11 1 -0.106 -4.007172 12.164612 18.8731886267
385 11 1 0.53 -1.475175 12.046166 18.9968659556
386 11 1 -0.106 -2.736864 12.792168 19.502331843
387 11 1 -0.106 -2.634762 12.927238 21.0109533175
388 11 1 0.53 -3.797001 26.409302 11.5154182047
389 11 1 -0.106 -3.822195 27.861824 12.0221060232
390 11 1 -0.106 -3.991923 27.841044 13.5304777755
391 11 1 0.53 -5.361681 29.946058 13.6514697598
392 11 1 -0.106 -4.074798 29.241616 14.1586890232
393 11 1 -0.106 -4.007172 29.395388 15.6677604217
394 11 1 0.53 -1.475175 29.513834 15.7914377506
395 11 1 -0.106 -2.736864 28.767832 16.296903638
396 11 1 -0.106 -2.634762 28.632762 17.8055251125
397 12 1 0.53 6.147999 25.540698 13.1116322526
398 12 1 -0.106 6.122805 24.088176 13.618320071
399 12 1 -0.106 5.953077 24.108956 15.1266918233
400 12 1 0.53 4.583319 22.003942 15.2476838076
401 12 1 -0.106 5.870202 22.708384 15.754903071
402 12 1 -0.106 5.937828 22.554612 17.2639744696
403 12 1 0.53 8.469825 22.436166 17.3876517985
404 12 1 -0.106 7.208136 23.182168 17.8931176858
405 12 1 -0.106 7.310238 23.317238 19.4017391604
406 12 1 0.53 6.147999 16.019302 9.90620404761
407 12 1 -0.106 6.122805 17.471824 10.412891866
408 12 1 -0.106 5.953077 17.451044 11.9212636183
409 12 1 0.53 4.583319 19.556058 12.0422556026
410 12 1 -0.106 5.870202 18.851616 12.549474866
411 12 1 -0.106 5.937828 19.005388 14.0585462646
412 12 1 0.53 8.469825 19.123834 14.1822235935
413 12 1 -0.106 7.208136 18.377832 14.6876894808
414 12 1 -0.106 7.310238 18.242762 16.1963109554
415 12 1 0.53 2.832999 15.150698 13.6480369716
416 12 1 -0.106 2.807805 13.698176 14.1547247901
417 12 1 -0.106 2.638077 13.718956 15.6630965424
418 12 1 0.53 1.268319 11.613942 15.7840885267
419 12 1 -0.106 2.555202 12.318384 16.2913077901
420 12 1 -0.106 2.622828 12.164612 17.8003791886
421 12 1 0.53 5.154825 12.046166 17.9240565175
422 12 1 -0.106 3.893136 12.792168 18.4295224049
423 12 1 -0.106 3.995238 12.927238 19.9381438794
424 12 1 0.53 2.832999 26.409302 10.4426087667
425 12 1 -0.106 2.807805 27.861824 10.9492965851
426 12 1 -0.106 2.638077 27.841044 12.4576683374
427 12 1 0.53 1.268319 29.946058 12.5786603217
428 12 1 -0.106 2.555202 29.241616 13.0858795851
429 12 1 -0.106 2.622828 29.395388 14.5949509836
430 12 1 0.53 5.154825 29.513834 14.7186283125
431 12 1 -0.106 3.893136 28.767832 15.2240941999
432 12 1 -0.106 3.995238 28.632762 16.7327156745
433 13 1 0.53 -0.482001 4.760698 20.5952981007
434 13 1 -0.106 -0.507195 3.308176 21.1019859191
435 13 1 -0.106 -0.676923 3.328956 22.6103576714
436 13 1 0.53 -2.046681 1.223942 22.7313496557
437 13 1 -0.106 -0.759798 1.928384 23.2385689191
438 13 1 -0.106 -0.692172 1.774612 24.7476403177
439 13 1 0.53 1.839825 1.656166 24.8713176466
440 13 1 -0.106 0.578136 2.402168 25.3767835339
441 13 1 -0.106 0.680238 2.537238 26.8854050085
442 13 1 0.53 -0.482001 -4.760698 17.3898698957
443 13 1 -0.106 -0.507195 -3.308176 17.8965577141
444 13 1 -0.106 -0.676923 -3.328956 19.4049294664
445 13 1 0.53 -2.046681 -1.223942 19.5259214507
446 13 1 -0.106 -0.759798 -1.928384 20.0331407141
447 13 1 -0.106 -0.692172 -1.774612 21.5422121127
448 13 1 0.53 1.839825 -1.656166 21.6658894416
449 13 1 -0.106 0.578136 -2.402168 22.1713553289
450 13 1 -0.106 0.680238 -2.537238 23.6799768035
451 13 1 0.53 -3.797001 -5.629302 21.1317028197
452 13 1 -0.106 -3.822195 -7.081824 21.6383906381
453 13 1 -0.106 -3.991923 -7.061044 23.1467623905
454 13 1 0.53 -5.361681 -9.166058 23.2677543747
455 13 1 -0.106 -4.074798 -8.461616 23.7749736382
456 13 1 -0.106 -4.007172 -8.615388 25.2840450367
457 13 1 0.53 -1.475175 -8.733834 25.4077223656
458 13 1 -0.106 -2.736864 -7.987832 25.9131882529
459 13 1 -0.106 -2.634762 -7.852762 27.4218097275
460 13 1 0.53 -3.797001 5.629302 17.9262746147
461 13 1 -0.106 -3.822195 7.081824 18.4329624331
462 13 1 -0.106 -3.991923 7.061044 19.9413341855
463 13 1 0.53 -5.361681 9.166058 20.0623261697
464 13 1 -0.106 -4.074798 8.461616 20.5695454332
465 13 1 -0.106 -4.007172 8.615388 22.0786168317
466 13 1 0.53 -1.475175 8.733834 22.2022941606
467 13 1 -0.106 -2.736864 7.987832 22.7077600479
468 13 1 -0.106 -2.634762 7.852762 24.2163815225
469 14 1 0.53 6.147999 4.760698 19.5224886626
470 14 1 -0.106 6.122805 3.308176 20.029176481
471 14 1 -0.106 5.953077 3.328956 21.5375482333
472 14 1 0.53 4.583319 1.223942 21.6585402176
473 14 1 -0.106 5.870202 1.928384 22.165759481
474 14 1 -0.106 5.937828 1.774612 23.6748308796
475 14 1 0.53 8.469825 1.656166 23.7985082085
476 14 1 -0.106 7.208136 2.402168 24.3039740958
477 14 1 -0.106 7.310238 2.537238 25.8125955704
478 14 1 0.53 6.147999 -4.760698 16.3170604576
479 14 1 -0.106 6.122805 -3.308176 16.823748276
480 14 1 -0.106 5.953077 -3.328956 18.3321200283
481 14 1 0.53 4.583319 -1.223942 18.4531120126
482 14 1 -0.106 5.870202 -1.928384 18.960331276
483 14 1 -0.106 5.937828 -1.774612 20.4694026746
484 14 1 0.53 8.469825 -1.656166 20.5930800035
485 14 1 -0.106 7.208136 -2.402168 21.0985458908
486 14 1 -0.106 7.310238 -2.537238 22.6071673654
487 14 1 0.53 2.832999 -5.629302 20.0588933816
488 14 1 -0.106 2.807805 -7.081824 20.5655812
489 14 1 -0.106 2.638077 -7.061044 22.0739529524
490 14 1 0.53 1.268319 -9.166058 22.1949449366
491 14 1 -0.106 2.555202 -8.461616 22.7021642001
492 14 1 -0.106 2.622828 -8.615388 24.2112355986
493 14 1 0.53 5.154825 -8.733834 24.3349129275
494 14 1 -0.106 3.893136 -7.987832 24.8403788148
495 14 1 -0.106 3.995238 -7.852762 26.3490002894
496 14 1 0.53 2.832999 5.629302 16.8534651766
497 14 1 -0.106 2.807805 7.081824 17.3601529951
498 14 1 -0.106 2.638077 7.061044 18.8685247474
499 14 1 0.53 1.268319 9.166058 18.9895167316
500 14 1 -0.106 2.555202 8.461616 19.4967359951
501 14 1 -0.106 2.622828 8.615388 21.0058073936
502 14 1 0.53 5.154825 8.733834 21.1294847225
503 14 1 -0.106 3.893136 7.987832 21.6349506099
504 14 1 -0.106 3.995238 7.852762 23.1435720844
505 15 1 0.53 -0.482001 25.540698 20.5952981007
506 15 1 -0.106 -0.507195 24.088176 21.1019859191
507 15 1 -0.106 -0.676923 24.108956 22.6103576714
508 15 1 0.53 -2.046681 22.003942 22.7313496557
509 15 1 -0.106 -0.759798 22.708384 23.2385689191
510 15 1 -0.106 -0.692172 22.554612 24.7476403177
511 15 1 0.53 1.839825 22.436166 24.8713176466
512 15 1 -0.106 0.578136 23.182168 25.3767835339
513 15 1 -0.106 0.680238 23.317238 26.8854050085
514 15 1 0.53 -0.482001 16.019302 17.3898698957
515 15 1 -0.106 -0.507195 17.471824 17.8965577141
516 15 1 -0.106 -0.676923 17.451044 19.4049294664
517 15 1 0.53 -2.046681 19.556058 19.5259214507
518 15 1 -0.106 -0.759798 18.851616 20.0331407141
519 15 1 -0.106 -0.692172 19.005388 21.5422121127
520 15 1 0.53 1.839825 19.123834 21.6658894416
521 15 1 -0.106 0.578136 18.377832 22.1713553289
522 15 1 -0.106 0.680238 18.242762 23.6799768035
523 15 1 0.53 -3.797001 15.150698 21.1317028197
524 15 1 -0.106 -3.822195 13.698176 21.6383906381
525 15 1 -0.106 -3.991923 13.718956 23.1467623905
526 15 1 0.53 -5.361681 11.613942 23.2677543747
527 15 1 -0.106 -4.074798 12.318384 23.7749736382
528 15 1 -0.106 -4.007172 12.164612 25.2840450367
529 15 1 0.53 -1.475175 12.046166 25.4077223656
530 15 1 -0.106 -2.736864 12.792168 25.9131882529
531 15 1 -0.106 -2.634762 12.927238 27.4218097275
532 15 1 0.53 -3.797001 26.409302 17.9262746147
533 15 1 -0.106 -3.822195 27.861824 18.4329624331
534 15 1 -0.106 -3.991923 27.841044 19.9413341855
535 15 1 0.53 -5.361681 29.946058 20.0623261697
536 15 1 -0.106 -4.074798 29.241616 20.5695454332
537 15 1 -0.106 -4.007172 29.395388 22.0786168317
538 15 1 0.53 -1.475175 29.513834 22.2022941606
539 15 1 -0.106 -2.736864 28.767832 22.7077600479
540 15 1 -0.106 -2.634762 28.632762 24.2163815225
541 16 1 0.53 6.147999 25.540698 19.5224886626
542 16 1 -0.106 6.122805 24.088176 20.029176481
543 16 1 -0.106 5.953077 24.108956 21.5375482333
544 16 1 0.53 4.583319 22.003942 21.6585402176
545 16 1 -0.106 5.870202 22.708384 22.165759481
546 16 1 -0.106 5.937828 22.554612 23.6748308796
547 16 1 0.53 8.469825 22.436166 23.7985082085
548 16 1 -0.106 7.208136 23.182168 24.3039740958
549 16 1 -0.106 7.310238 23.317238 25.8125955704
550 16 1 0.53 6.147999 16.019302 16.3170604576
551 16 1 -0.106 6.122805 17.471824 16.823748276
552 16 1 -0.106 5.953077 17.451044 18.3321200283
553 16 1 0.53 4.583319 19.556058 18.4531120126
554 16 1 -0.106 5.870202 18.851616 18.960331276
555 16 1 -0.106 5.937828 19.005388 20.4694026746
556 16 1 0.53 8.469825 19.123834 20.5930800035
557 16 1 -0.106 7.208136 18.377832 21.0985458908
558 16 1 -0.106 7.310238 18.242762 22.6071673654
559 16 1 0.53 2.832999 15.150698 20.0588933816
560 16 1 -0.106 2.807805 13.698176 20.5655812
561 16 1 -0.106 2.638077 13.718956 22.0739529524
562 16 1 0.53 1.268319 11.613942 22.1949449366
563 16 1 -0.106 2.555202 12.318384 22.7021642001
564 16 1 -0.106 2.622828 12.164612 24.2112355986
565 16 1 0.53 5.154825 12.046166 24.3349129275
566 16 1 -0.106 3.893136 12.792168 24.8403788148
567 16 1 -0.106 3.995238 12.927238 26.3490002894
568 16 1 0.53 2.832999 26.409302 16.8534651766
569 16 1 -0.106 2.807805 27.861824 17.3601529951
570 16 1 -0.106 2.638077 27.841044 18.8685247474
571 16 1 0.53 1.268319 29.946058 18.9895167316
572 16 1 -0.106 2.555202 29.241616 19.4967359951
573 16 1 -0.106 2.622828 29.395388 21.0058073936
574 16 1 0.53 5.154825 29.513834 21.1294847225
575 16 1 -0.106 3.893136 28.767832 21.6349506099
576 16 1 -0.106 3.995238 28.632762 23.1435720844
577 1 2 0 -1.19822985059 2.64348325371 1.33029296649
578 1 2 0.53 0.165096989681 3.87576876457 3.8272304705
579 1 2 0.53 -1.58835925693 3.89093162922 3.62971569624
580 1 2 0.53 0.0845568735757 1.3553447416 3.59527976534
581 1 2 0.53 -1.5830299151 2.23758219877 5.96454941882
582 1 2 0.53 -0.729765193127 0.705261360994 5.77017099495
583 1 2 0.53 0.645721459293 3.42181123077 5.73707810112
584 1 2 0.53 -0.118786520685 2.85902202607 8.3369518914
585 1 2 0.53 1.52992611341 2.23250922467 8.28146164769
586 1 2 0.53 -1.519001 4.760698 0.992728870712
587 1 2 0.53 0.036499 5.658698 0.992728870712
588 1 2 0.53 0.036499 3.862698 0.992728870712
589 1 2 0.53 -3.083681 1.223942 3.12878042572
590 1 2 0.53 -1.528181 2.121942 3.12878042572
591 1 2 0.53 -1.528181 0.325942 3.12878042572
592 1 2 0.53 2.876825 1.656166 5.26874841658
593 1 2 0.53 1.321325 2.554166 5.26874841658
594 1 2 0.53 1.321325 0.758166 5.26874841658
595 1 2 0.53 0.183839850589 -3.97286874629 -0.796887793243
596 1 2 0.53 -1.58835925693 -3.89093162922 0.424287491245
597 1 2 0.53 0.165096989681 -3.87576876457 0.6218022655
598 1 2 0.53 -1.60415287358 -2.5014232584 1.21129140794
599 1 2 0.53 -0.729765193127 -0.705261360994 2.56474278995
600 1 2 0.53 -1.5830299151 -2.23758219877 2.75912121382
601 1 2 0.53 0.510550540707 -1.38252476923 3.34592230172
602 1 2 0.53 1.52992611341 -2.23250922467 5.0760334427
603 1 2 0.53 -0.118786520685 -2.85902202607 5.1315236864
604 1 2 0.53 -1.519001 -4.760698 -1.47269933428
605 1 2 0.53 0.036499 -5.658698 -1.47269933428
606 1 2 0.53 0.036499 -3.862698 -1.47269933428
607 1 2 0.53 -3.083681 -1.223942 -0.0766477792792
608 1 2 0.53 -1.528181 -2.121942 -0.0766477792792
609 1 2 0.53 -1.528181 -0.325942 -0.0766477792792
610 1 2 0.53 2.876825 -1.656166 2.06332021159
611 1 2 0.53 1.321325 -2.554166 2.06332021159
612 1 2 0.53 1.321325 -0.758166 2.06332021159
613 1 2 0.53 -4.51322985059 -7.74651674629 1.86669768553
614 1 2 0.53 -3.14990301032 -6.51423123543 4.36363518954
615 1 2 0.53 -4.90335925693 -6.49906837078 4.16612041529
616 1 2 0.53 -3.23044312642 -9.0346552584 4.13168448439
617 1 2 0.53 -4.8980299151 -8.15241780123 6.50095413786