LAMMPS data file via write_data, version 7 Aug 2019, timestep = 1000000

1296 atoms
2 atom types
864 bonds
2  bond types
-2.68645480172 13.388155  xlo xhi
-5.19722622305 41.685162  ylo yhi
-9.372 19.76745  zlo zhi

Masses

1 12.0112
2 12.0112
3 12.0112
4 1.00797

Atoms #full

1 1 1 0.53 0.063648 1.531486 -6.9836
2 1 1 -0.106 0.080886 1.726818 -5.44245
3 1 1 -0.106 -0.272493 3.786116 -5.0011
4 1 1 0.53 0.391342859077 -0.93850467575 -6.9836
5 1 1 -0.106 0.436696294291 -1.08296029627 -5.44245
6 1 1 -0.106 1.18239306342 -1.15342207569 -5.0011
7 1 1 0.53 -0.454990859077 -0.59298132425 -6.9836
8 1 1 -0.106 -0.517582294291 -0.643857703734 -5.44245
9 1 1 -0.106 -0.909900063416 -2.63269392431 -5.0011
10 1 1 0.53 2.718963 15.094592 -7.9547
11 1 1 -0.106 2.77797 15.225506 -6.41225
12 1 1 -0.106 3.497988 18.33835 -5.97285
13 1 1 0.53 2.39656814275 12.9984173117 -7.9547
14 1 1 -0.106 2.40323765784 12.7727958415 -6.41225
15 1 1 -0.106 2.90334257221 9.26200738456 -5.97285
16 1 1 0.53 1.97856885725 14.9215906883 -7.9547
17 1 1 -0.106 1.91289234216 15.0162981585 -6.41225
18 1 1 -0.106 0.692769427785 15.4142426154 -5.97285
19 1 1 0.53 4.462653 5.544104 -3.81225
20 1 1 -0.106 4.460001 5.384098 -2.2698
21 1 1 -0.106 5.004324 3.877548 -1.82455
22 1 1 0.53 4.01665583798 7.50217368257 -3.81225
23 1 1 -0.106 3.9737703751 7.58937508573 -2.2698
24 1 1 -0.106 3.28533211413 6.8651778379 -1.82455
25 1 1 0.53 4.78069116202 7.73372231743 -3.81225
26 1 1 -0.106 4.8262286249 7.80652691427 -2.2698
27 1 1 -0.106 4.97034388587 10.0372741621 -1.82455
28 1 1 0.53 6.693648 1.531486 -6.9836
29 1 1 -0.106 6.710886 1.726818 -5.44245
30 1 1 -0.106 6.357507 3.786116 -5.0011
31 1 1 0.53 7.02134285908 -0.93850467575 -6.9836
32 1 1 -0.106 7.06669629429 -1.08296029627 -5.44245
33 1 1 -0.106 7.81239306342 -1.15342207569 -5.0011
34 1 1 0.53 6.17500914092 -0.59298132425 -6.9836
35 1 1 -0.106 6.11241770571 -0.643857703734 -5.44245
36 1 1 -0.106 5.72009993658 -2.63269392431 -5.0011
37 2 1 0.53 9.348963 15.094592 -7.9547
38 2 1 -0.106 9.40797 15.225506 -6.41225
39 2 1 -0.106 10.127988 18.33835 -5.97285
40 2 1 0.53 9.02656814275 12.9984173117 -7.9547
41 2 1 -0.106 9.03323765784 12.7727958415 -6.41225
42 2 1 -0.106 9.53334257221 9.26200738456 -5.97285
43 2 1 0.53 8.60856885725 14.9215906883 -7.9547
44 2 1 -0.106 8.54289234216 15.0162981585 -6.41225
45 2 1 -0.106 7.32276942779 15.4142426154 -5.97285
46 2 1 0.53 11.092653 5.544104 -3.81225
47 2 1 -0.106 11.090001 5.384098 -2.2698
48 2 1 -0.106 11.634324 3.877548 -1.82455
49 2 1 0.53 10.646655838 7.50217368257 -3.81225
50 2 1 -0.106 10.6037703751 7.58937508573 -2.2698
51 2 1 -0.106 9.91533211413 6.8651778379 -1.82455
52 2 1 0.53 11.410691162 7.73372231743 -3.81225
53 2 1 -0.106 11.4562286249 7.80652691427 -2.2698
54 2 1 -0.106 11.6003438859 10.0372741621 -1.82455
55 2 1 0.53 0.063648 22.311486 -6.9836
56 2 1 -0.106 0.080886 22.506818 -5.44245
57 2 1 -0.106 -0.272493 24.566116 -5.0011
58 2 1 0.53 0.391342859077 19.8414953242 -6.9836
59 2 1 -0.106 0.436696294291 19.6970397037 -5.44245
60 2 1 -0.106 1.18239306342 19.6265779243 -5.0011
61 2 1 0.53 -0.454990859077 20.1870186758 -6.9836
62 2 1 -0.106 -0.517582294291 20.1361422963 -5.44245
63 2 1 -0.106 -0.909900063416 18.1473060757 -5.0011
64 2 1 0.53 2.718963 35.874592 -7.9547
65 2 1 -0.106 2.77797 36.005506 -6.41225
66 2 1 -0.106 3.497988 39.11835 -5.97285
67 2 1 0.53 2.39656814275 33.7784173117 -7.9547
68 2 1 -0.106 2.40323765784 33.5527958415 -6.41225
69 2 1 -0.106 2.90334257221 30.0420073846 -5.97285
70 2 1 0.53 1.97856885725 35.7015906883 -7.9547
71 2 1 -0.106 1.91289234216 35.7962981585 -6.41225
72 2 1 -0.106 0.692769427785 36.1942426154 -5.97285
73 3 1 0.53 4.462653 26.324104 -3.81225
74 3 1 -0.106 4.460001 26.164098 -2.2698
75 3 1 -0.106 5.004324 24.657548 -1.82455
76 3 1 0.53 4.01665583798 28.2821736826 -3.81225
77 3 1 -0.106 3.9737703751 28.3693750857 -2.2698
78 3 1 -0.106 3.28533211413 27.6451778379 -1.82455
79 3 1 0.53 4.78069116202 28.5137223174 -3.81225
80 3 1 -0.106 4.8262286249 28.5865269143 -2.2698
81 3 1 -0.106 4.97034388587 30.8172741621 -1.82455
82 3 1 0.53 6.693648 22.311486 -6.9836
83 3 1 -0.106 6.710886 22.506818 -5.44245
84 3 1 -0.106 6.357507 24.566116 -5.0011
85 3 1 0.53 7.02134285908 19.8414953242 -6.9836
86 3 1 -0.106 7.06669629429 19.6970397037 -5.44245
87 3 1 -0.106 7.81239306342 19.6265779243 -5.0011
88 3 1 0.53 6.17500914092 20.1870186758 -6.9836
89 3 1 -0.106 6.11241770571 20.1361422963 -5.44245
90 3 1 -0.106 5.72009993658 18.1473060757 -5.0011
91 3 1 0.53 9.348963 35.874592 -7.9547
92 3 1 -0.106 9.40797 36.005506 -6.41225
93 3 1 -0.106 10.127988 39.11835 -5.97285
94 3 1 0.53 9.02656814275 33.7784173117 -7.9547
95 3 1 -0.106 9.03323765784 33.5527958415 -6.41225
96 3 1 -0.106 9.53334257221 30.0420073846 -5.97285
97 3 1 0.53 8.60856885725 35.7015906883 -7.9547
98 3 1 -0.106 8.54289234216 35.7962981585 -6.41225
99 3 1 -0.106 7.32276942779 36.1942426154 -5.97285
100 3 1 0.53 11.092653 26.324104 -3.81225
101 3 1 -0.106 11.090001 26.164098 -2.2698
102 3 1 -0.106 11.634324 24.657548 -1.82455
103 3 1 0.53 10.646655838 28.2821736826 -3.81225
104 3 1 -0.106 10.6037703751 28.3693750857 -2.2698
105 3 1 -0.106 9.91533211413 27.6451778379 -1.82455
106 3 1 0.53 11.410691162 28.5137223174 -3.81225
107 3 1 -0.106 11.4562286249 28.5865269143 -2.2698
108 3 1 -0.106 11.6003438859 30.8172741621 -1.82455
109 4 1 0.53 0.063648 1.531486 -0.4836
110 4 1 -0.106 0.080886 1.726818 1.05755
111 4 1 -0.106 -0.272493 3.786116 1.4989
112 4 1 0.53 0.391342859077 -0.93850467575 -0.4836
113 4 1 -0.106 0.436696294291 -1.08296029627 1.05755
114 4 1 -0.106 1.18239306342 -1.15342207569 1.4989
115 4 1 0.53 -0.454990859077 -0.59298132425 -0.4836
116 4 1 -0.106 -0.517582294291 -0.643857703734 1.05755
117 4 1 -0.106 -0.909900063416 -2.63269392431 1.4989
118 4 1 0.53 2.718963 15.094592 -1.4547
119 4 1 -0.106 2.77797 15.225506 0.08775
120 4 1 -0.106 3.497988 18.33835 0.52715
121 4 1 0.53 2.39656814275 12.9984173117 -1.4547
122 4 1 -0.106 2.40323765784 12.7727958415 0.08775
123 4 1 -0.106 2.90334257221 9.26200738456 0.52715
124 4 1 0.53 1.97856885725 14.9215906883 -1.4547
125 4 1 -0.106 1.91289234216 15.0162981585 0.08775
126 4 1 -0.106 0.692769427785 15.4142426154 0.52715
127 4 1 0.53 4.462653 5.544104 2.68775
128 4 1 -0.106 4.460001 5.384098 4.2302
129 4 1 -0.106 5.004324 3.877548 4.67545
130 4 1 0.53 4.01665583798 7.50217368257 2.68775
131 4 1 -0.106 3.9737703751 7.58937508573 4.2302
132 4 1 -0.106 3.28533211413 6.8651778379 4.67545
133 4 1 0.53 4.78069116202 7.73372231743 2.68775
134 4 1 -0.106 4.8262286249 7.80652691427 4.2302
135 4 1 -0.106 4.97034388587 10.0372741621 4.67545
136 4 1 0.53 6.693648 1.531486 -0.4836
137 4 1 -0.106 6.710886 1.726818 1.05755
138 4 1 -0.106 6.357507 3.786116 1.4989
139 4 1 0.53 7.02134285908 -0.93850467575 -0.4836
140 4 1 -0.106 7.06669629429 -1.08296029627 1.05755
141 4 1 -0.106 7.81239306342 -1.15342207569 1.4989
142 4 1 0.53 6.17500914092 -0.59298132425 -0.4836
143 4 1 -0.106 6.11241770571 -0.643857703734 1.05755
144 4 1 -0.106 5.72009993658 -2.63269392431 1.4989
145 5 1 0.53 9.348963 15.094592 -1.4547
146 5 1 -0.106 9.40797 15.225506 0.08775
147 5 1 -0.106 10.127988 18.33835 0.52715
148 5 1 0.53 9.02656814275 12.9984173117 -1.4547
149 5 1 -0.106 9.03323765784 12.7727958415 0.08775
150 5 1 -0.106 9.53334257221 9.26200738456 0.52715
151 5 1 0.53 8.60856885725 14.9215906883 -1.4547
152 5 1 -0.106 8.54289234216 15.0162981585 0.08775
153 5 1 -0.106 7.32276942779 15.4142426154 0.52715
154 5 1 0.53 11.092653 5.544104 2.68775
155 5 1 -0.106 11.090001 5.384098 4.2302
156 5 1 -0.106 11.634324 3.877548 4.67545
157 5 1 0.53 10.646655838 7.50217368257 2.68775
158 5 1 -0.106 10.6037703751 7.58937508573 4.2302
159 5 1 -0.106 9.91533211413 6.8651778379 4.67545
160 5 1 0.53 11.410691162 7.73372231743 2.68775
161 5 1 -0.106 11.4562286249 7.80652691427 4.2302
162 5 1 -0.106 11.6003438859 10.0372741621 4.67545
163 5 1 0.53 0.063648 22.311486 -0.4836
164 5 1 -0.106 0.080886 22.506818 1.05755
165 5 1 -0.106 -0.272493 24.566116 1.4989
166 5 1 0.53 0.391342859077 19.8414953242 -0.4836
167 5 1 -0.106 0.436696294291 19.6970397037 1.05755
168 5 1 -0.106 1.18239306342 19.6265779243 1.4989
169 5 1 0.53 -0.454990859077 20.1870186758 -0.4836
170 5 1 -0.106 -0.517582294291 20.1361422963 1.05755
171 5 1 -0.106 -0.909900063416 18.1473060757 1.4989
172 5 1 0.53 2.718963 35.874592 -1.4547
173 5 1 -0.106 2.77797 36.005506 0.08775
174 5 1 -0.106 3.497988 39.11835 0.52715
175 5 1 0.53 2.39656814275 33.7784173117 -1.4547
176 5 1 -0.106 2.40323765784 33.5527958415 0.08775
177 5 1 -0.106 2.90334257221 30.0420073846 0.52715
178 5 1 0.53 1.97856885725 35.7015906883 -1.4547
179 5 1 -0.106 1.91289234216 35.7962981585 0.08775
180 5 1 -0.106 0.692769427785 36.1942426154 0.52715
181 6 1 0.53 4.462653 26.324104 2.68775
182 6 1 -0.106 4.460001 26.164098 4.2302
183 6 1 -0.106 5.004324 24.657548 4.67545
184 6 1 0.53 4.01665583798 28.2821736826 2.68775
185 6 1 -0.106 3.9737703751 28.3693750857 4.2302
186 6 1 -0.106 3.28533211413 27.6451778379 4.67545
187 6 1 0.53 4.78069116202 28.5137223174 2.68775
188 6 1 -0.106 4.8262286249 28.5865269143 4.2302
189 6 1 -0.106 4.97034388587 30.8172741621 4.67545
190 6 1 0.53 6.693648 22.311486 -0.4836
191 6 1 -0.106 6.710886 22.506818 1.05755
192 6 1 -0.106 6.357507 24.566116 1.4989
193 6 1 0.53 7.02134285908 19.8414953242 -0.4836
194 6 1 -0.106 7.06669629429 19.6970397037 1.05755
195 6 1 -0.106 7.81239306342 19.6265779243 1.4989
196 6 1 0.53 6.17500914092 20.1870186758 -0.4836
197 6 1 -0.106 6.11241770571 20.1361422963 1.05755
198 6 1 -0.106 5.72009993658 18.1473060757 1.4989
199 6 1 0.53 9.348963 35.874592 -1.4547
200 6 1 -0.106 9.40797 36.005506 0.08775
201 6 1 -0.106 10.127988 39.11835 0.52715
202 6 1 0.53 9.02656814275 33.7784173117 -1.4547
203 6 1 -0.106 9.03323765784 33.5527958415 0.08775
204 6 1 -0.106 9.53334257221 30.0420073846 0.52715
205 6 1 0.53 8.60856885725 35.7015906883 -1.4547
206 6 1 -0.106 8.54289234216 35.7962981585 0.08775
207 6 1 -0.106 7.32276942779 36.1942426154 0.52715
208 6 1 0.53 11.092653 26.324104 2.68775
209 6 1 -0.106 11.090001 26.164098 4.2302
210 6 1 -0.106 11.634324 24.657548 4.67545
211 6 1 0.53 10.646655838 28.2821736826 2.68775
212 6 1 -0.106 10.6037703751 28.3693750857 4.2302
213 6 1 -0.106 9.91533211413 27.6451778379 4.67545
214 6 1 0.53 11.410691162 28.5137223174 2.68775
215 6 1 -0.106 11.4562286249 28.5865269143 4.2302
216 6 1 -0.106 11.6003438859 30.8172741621 4.67545
217 7 1 0.53 0.063648 1.531486 6.0164
218 7 1 -0.106 0.080886 1.726818 7.55755
219 7 1 -0.106 -0.272493 3.786116 7.9989
220 7 1 0.53 0.391342859077 -0.93850467575 6.0164
221 7 1 -0.106 0.436696294291 -1.08296029627 7.55755
222 7 1 -0.106 1.18239306342 -1.15342207569 7.9989
223 7 1 0.53 -0.454990859077 -0.59298132425 6.0164
224 7 1 -0.106 -0.517582294291 -0.643857703734 7.55755
225 7 1 -0.106 -0.909900063416 -2.63269392431 7.9989
226 7 1 0.53 2.718963 15.094592 5.0453
227 7 1 -0.106 2.77797 15.225506 6.58775
228 7 1 -0.106 3.497988 18.33835 7.02715
229 7 1 0.53 2.39656814275 12.9984173117 5.0453
230 7 1 -0.106 2.40323765784 12.7727958415 6.58775
231 7 1 -0.106 2.90334257221 9.26200738456 7.02715
232 7 1 0.53 1.97856885725 14.9215906883 5.0453
233 7 1 -0.106 1.91289234216 15.0162981585 6.58775
234 7 1 -0.106 0.692769427785 15.4142426154 7.02715
235 7 1 0.53 4.462653 5.544104 9.18775
236 7 1 -0.106 4.460001 5.384098 10.7302
237 7 1 -0.106 5.004324 3.877548 11.17545
238 7 1 0.53 4.01665583798 7.50217368257 9.18775
239 7 1 -0.106 3.9737703751 7.58937508573 10.7302
240 7 1 -0.106 3.28533211413 6.8651778379 11.17545
241 7 1 0.53 4.78069116202 7.73372231743 9.18775
242 7 1 -0.106 4.8262286249 7.80652691427 10.7302
243 7 1 -0.106 4.97034388587 10.0372741621 11.17545
244 7 1 0.53 6.693648 1.531486 6.0164
245 7 1 -0.106 6.710886 1.726818 7.55755
246 7 1 -0.106 6.357507 3.786116 7.9989
247 7 1 0.53 7.02134285908 -0.93850467575 6.0164
248 7 1 -0.106 7.06669629429 -1.08296029627 7.55755
249 7 1 -0.106 7.81239306342 -1.15342207569 7.9989
250 7 1 0.53 6.17500914092 -0.59298132425 6.0164
251 7 1 -0.106 6.11241770571 -0.643857703734 7.55755
252 7 1 -0.106 5.72009993658 -2.63269392431 7.9989
253 8 1 0.53 9.348963 15.094592 5.0453
254 8 1 -0.106 9.40797 15.225506 6.58775
255 8 1 -0.106 10.127988 18.33835 7.02715
256 8 1 0.53 9.02656814275 12.9984173117 5.0453
257 8 1 -0.106 9.03323765784 12.7727958415 6.58775
258 8 1 -0.106 9.53334257221 9.26200738456 7.02715
259 8 1 0.53 8.60856885725 14.9215906883 5.0453
260 8 1 -0.106 8.54289234216 15.0162981585 6.58775
261 8 1 -0.106 7.32276942779 15.4142426154 7.02715
262 8 1 0.53 11.092653 5.544104 9.18775
263 8 1 -0.106 11.090001 5.384098 10.7302
264 8 1 -0.106 11.634324 3.877548 11.17545
265 8 1 0.53 10.646655838 7.50217368257 9.18775
266 8 1 -0.106 10.6037703751 7.58937508573 10.7302
267 8 1 -0.106 9.91533211413 6.8651778379 11.17545
268 8 1 0.53 11.410691162 7.73372231743 9.18775
269 8 1 -0.106 11.4562286249 7.80652691427 10.7302
270 8 1 -0.106 11.6003438859 10.0372741621 11.17545
271 8 1 0.53 0.063648 22.311486 6.0164
272 8 1 -0.106 0.080886 22.506818 7.55755
273 8 1 -0.106 -0.272493 24.566116 7.9989
274 8 1 0.53 0.391342859077 19.8414953242 6.0164
275 8 1 -0.106 0.436696294291 19.6970397037 7.55755
276 8 1 -0.106 1.18239306342 19.6265779243 7.9989
277 8 1 0.53 -0.454990859077 20.1870186758 6.0164
278 8 1 -0.106 -0.517582294291 20.1361422963 7.55755
279 8 1 -0.106 -0.909900063416 18.1473060757 7.9989
280 8 1 0.53 2.718963 35.874592 5.0453
281 8 1 -0.106 2.77797 36.005506 6.58775
282 8 1 -0.106 3.497988 39.11835 7.02715
283 8 1 0.53 2.39656814275 33.7784173117 5.0453
284 8 1 -0.106 2.40323765784 33.5527958415 6.58775
285 8 1 -0.106 2.90334257221 30.0420073846 7.02715
286 8 1 0.53 1.97856885725 35.7015906883 5.0453
287 8 1 -0.106 1.91289234216 35.7962981585 6.58775
288 8 1 -0.106 0.692769427785 36.1942426154 7.02715
289 9 1 0.53 4.462653 26.324104 9.18775
290 9 1 -0.106 4.460001 26.164098 10.7302
291 9 1 -0.106 5.004324 24.657548 11.17545
292 9 1 0.53 4.01665583798 28.2821736826 9.18775
293 9 1 -0.106 3.9737703751 28.3693750857 10.7302
294 9 1 -0.106 3.28533211413 27.6451778379 11.17545
295 9 1 0.53 4.78069116202 28.5137223174 9.18775
296 9 1 -0.106 4.8262286249 28.5865269143 10.7302
297 9 1 -0.106 4.97034388587 30.8172741621 11.17545
298 9 1 0.53 6.693648 22.311486 6.0164
299 9 1 -0.106 6.710886 22.506818 7.55755
300 9 1 -0.106 6.357507 24.566116 7.9989
301 9 1 0.53 7.02134285908 19.8414953242 6.0164
302 9 1 -0.106 7.06669629429 19.6970397037 7.55755
303 9 1 -0.106 7.81239306342 19.6265779243 7.9989
304 9 1 0.53 6.17500914092 20.1870186758 6.0164
305 9 1 -0.106 6.11241770571 20.1361422963 7.55755
306 9 1 -0.106 5.72009993658 18.1473060757 7.9989
307 9 1 0.53 9.348963 35.874592 5.0453
308 9 1 -0.106 9.40797 36.005506 6.58775
309 9 1 -0.106 10.127988 39.11835 7.02715
310 9 1 0.53 9.02656814275 33.7784173117 5.0453
311 9 1 -0.106 9.03323765784 33.5527958415 6.58775
312 9 1 -0.106 9.53334257221 30.0420073846 7.02715
313 9 1 0.53 8.60856885725 35.7015906883 5.0453
314 9 1 -0.106 8.54289234216 35.7962981585 6.58775
315 9 1 -0.106 7.32276942779 36.1942426154 7.02715
316 9 1 0.53 11.092653 26.324104 9.18775
317 9 1 -0.106 11.090001 26.164098 10.7302
318 9 1 -0.106 11.634324 24.657548 11.17545
319 9 1 0.53 10.646655838 28.2821736826 9.18775
320 9 1 -0.106 10.6037703751 28.3693750857 10.7302
321 9 1 -0.106 9.91533211413 27.6451778379 11.17545
322 9 1 0.53 11.410691162 28.5137223174 9.18775
323 9 1 -0.106 11.4562286249 28.5865269143 10.7302
324 9 1 -0.106 11.6003438859 30.8172741621 11.17545
325 10 1 0.53 0.063648 1.531486 12.5164
326 10 1 -0.106 0.080886 1.726818 14.05755
327 10 1 -0.106 -0.272493 3.786116 14.4989
328 10 1 0.53 0.391342859077 -0.93850467575 12.5164
329 10 1 -0.106 0.436696294291 -1.08296029627 14.05755
330 10 1 -0.106 1.18239306342 -1.15342207569 14.4989
331 10 1 0.53 -0.454990859077 -0.59298132425 12.5164
332 10 1 -0.106 -0.517582294291 -0.643857703734 14.05755
333 10 1 -0.106 -0.909900063416 -2.63269392431 14.4989
334 10 1 0.53 2.718963 15.094592 11.5453
335 10 1 -0.106 2.77797 15.225506 13.08775
336 10 1 -0.106 3.497988 18.33835 13.52715
337 10 1 0.53 2.39656814275 12.9984173117 11.5453
338 10 1 -0.106 2.40323765784 12.7727958415 13.08775
339 10 1 -0.106 2.90334257221 9.26200738456 13.52715
340 10 1 0.53 1.97856885725 14.9215906883 11.5453
341 10 1 -0.106 1.91289234216 15.0162981585 13.08775
342 10 1 -0.106 0.692769427785 15.4142426154 13.52715
343 10 1 0.53 4.462653 5.544104 15.68775
344 10 1 -0.106 4.460001 5.384098 17.2302
345 10 1 -0.106 5.004324 3.877548 17.67545
346 10 1 0.53 4.01665583798 7.50217368257 15.68775
347 10 1 -0.106 3.9737703751 7.58937508573 17.2302
348 10 1 -0.106 3.28533211413 6.8651778379 17.67545
349 10 1 0.53 4.78069116202 7.73372231743 15.68775
350 10 1 -0.106 4.8262286249 7.80652691427 17.2302
351 10 1 -0.106 4.97034388587 10.0372741621 17.67545
352 10 1 0.53 6.693648 1.531486 12.5164
353 10 1 -0.106 6.710886 1.726818 14.05755
354 10 1 -0.106 6.357507 3.786116 14.4989
355 10 1 0.53 7.02134285908 -0.93850467575 12.5164
356 10 1 -0.106 7.06669629429 -1.08296029627 14.05755
357 10 1 -0.106 7.81239306342 -1.15342207569 14.4989
358 10 1 0.53 6.17500914092 -0.59298132425 12.5164
359 10 1 -0.106 6.11241770571 -0.643857703734 14.05755
360 10 1 -0.106 5.72009993658 -2.63269392431 14.4989
361 11 1 0.53 9.348963 15.094592 11.5453
362 11 1 -0.106 9.40797 15.225506 13.08775
363 11 1 -0.106 10.127988 18.33835 13.52715
364 11 1 0.53 9.02656814275 12.9984173117 11.5453
365 11 1 -0.106 9.03323765784 12.7727958415 13.08775
366 11 1 -0.106 9.53334257221 9.26200738456 13.52715
367 11 1 0.53 8.60856885725 14.9215906883 11.5453
368 11 1 -0.106 8.54289234216 15.0162981585 13.08775
369 11 1 -0.106 7.32276942779 15.4142426154 13.52715
370 11 1 0.53 11.092653 5.544104 15.68775
371 11 1 -0.106 11.090001 5.384098 17.2302
372 11 1 -0.106 11.634324 3.877548 17.67545
373 11 1 0.53 10.646655838 7.50217368257 15.68775
374 11 1 -0.106 10.6037703751 7.58937508573 17.2302
375 11 1 -0.106 9.91533211413 6.8651778379 17.67545
376 11 1 0.53 11.410691162 7.73372231743 15.68775
377 11 1 -0.106 11.4562286249 7.80652691427 17.2302
378 11 1 -0.106 11.6003438859 10.0372741621 17.67545
379 11 1 0.53 0.063648 22.311486 12.5164
380 11 1 -0.106 0.080886 22.506818 14.05755
381 11 1 -0.106 -0.272493 24.566116 14.4989
382 11 1 0.53 0.391342859077 19.8414953242 12.5164
383 11 1 -0.106 0.436696294291 19.6970397037 14.05755
384 11 1 -0.106 1.18239306342 19.6265779243 14.4989
385 11 1 0.53 -0.454990859077 20.1870186758 12.5164
386 11 1 -0.106 -0.517582294291 20.1361422963 14.05755
387 11 1 -0.106 -0.909900063416 18.1473060757 14.4989
388 11 1 0.53 2.718963 35.874592 11.5453
389 11 1 -0.106 2.77797 36.005506 13.08775
390 11 1 -0.106 3.497988 39.11835 13.52715
391 11 1 0.53 2.39656814275 33.7784173117 11.5453
392 11 1 -0.106 2.40323765784 33.5527958415 13.08775
393 11 1 -0.106 2.90334257221 30.0420073846 13.52715
394 11 1 0.53 1.97856885725 35.7015906883 11.5453
395 11 1 -0.106 1.91289234216 35.7962981585 13.08775
396 11 1 -0.106 0.692769427785 36.1942426154 13.52715
397 12 1 0.53 4.462653 26.324104 15.68775
398 12 1 -0.106 4.460001 26.164098 17.2302
399 12 1 -0.106 5.004324 24.657548 17.67545
400 12 1 0.53 4.01665583798 28.2821736826 15.68775
401 12 1 -0.106 3.9737703751 28.3693750857 17.2302
402 12 1 -0.106 3.28533211413 27.6451778379 17.67545
403 12 1 0.53 4.78069116202 28.5137223174 15.68775
404 12 1 -0.106 4.8262286249 28.5865269143 17.2302
405 12 1 -0.106 4.97034388587 30.8172741621 17.67545
406 12 1 0.53 6.693648 22.311486 12.5164
407 12 1 -0.106 6.710886 22.506818 14.05755
408 12 1 -0.106 6.357507 24.566116 14.4989
409 12 1 0.53 7.02134285908 19.8414953242 12.5164
410 12 1 -0.106 7.06669629429 19.6970397037 14.05755
411 12 1 -0.106 7.81239306342 19.6265779243 14.4989
412 12 1 0.53 6.17500914092 20.1870186758 12.5164
413 12 1 -0.106 6.11241770571 20.1361422963 14.05755
414 12 1 -0.106 5.72009993658 18.1473060757 14.4989
415 12 1 0.53 9.348963 35.874592 11.5453
416 12 1 -0.106 9.40797 36.005506 13.08775
417 12 1 -0.106 10.127988 39.11835 13.52715
418 12 1 0.53 9.02656814275 33.7784173117 11.5453
419 12 1 -0.106 9.03323765784 33.5527958415 13.08775
420 12 1 -0.106 9.53334257221 30.0420073846 13.52715
421 12 1 0.53 8.60856885725 35.7015906883 11.5453
422 12 1 -0.106 8.54289234216 35.7962981585 13.08775
423 12 1 -0.106 7.32276942779 36.1942426154 13.52715
424 12 1 0.53 11.092653 26.324104 15.68775
425 12 1 -0.106 11.090001 26.164098 17.2302
426 12 1 -0.106 11.634324 24.657548 17.67545
427 12 1 0.53 10.646655838 28.2821736826 15.68775
428 12 1 -0.106 10.6037703751 28.3693750857 17.2302
429 12 1 -0.106 9.91533211413 27.6451778379 17.67545
430 12 1 0.53 11.410691162 28.5137223174 15.68775
431 12 1 -0.106 11.4562286249 28.5865269143 17.2302
432 12 1 -0.106 11.6003438859 30.8172741621 17.67545
433 1 2 0 0.450177 3.779882 -7.40285
434 1 2 0.53 -0.674271 0.604698 -7.2969
435 1 2 0.53 0.820794 2.749194 -5.1207
436 1 2 0.53 0.100113 5.9223 -5.5289
437 1 2 0.53 -1.02765 2.81569 -5.21365
438 1 2 0.53 -0.163098 4.29107 -3.91235
439 1 2 0.53 0.819335538888 -3.11186993577 -7.40285
440 1 2 0.53 0.504220379228 1.52784500248 -7.2969
441 1 2 0.53 0.349236316904 -3.60250277686 -5.1207
442 1 2 0.53 1.58634180172 -3.23288971915 -5.5289
443 1 2 0.53 1.29183191187 1.38153622305 -5.21365
444 1 2 0.53 1.26722005019 -1.70283320589 -3.91235
445 1 2 0.53 -1.26951253889 -0.668012064226 -7.40285
446 1 2 0.53 0.170050620772 -2.13254300248 -7.2969
447 1 2 0.53 -1.1700303169 0.853308776861 -5.1207
448 1 2 0.53 -1.68645480172 -2.68941028085 -5.5289
449 1 2 0.53 -0.264181911871 -4.19722622305 -5.21365
450 1 2 0.53 -1.10412205019 -2.58823679411 -3.91235
451 1 2 0.53 3.430362 15.944494 -8.372
452 1 2 0.53 2.484261 16.638546 -8.26995
453 1 2 0.53 3.046485 13.772984 -6.0853
454 1 2 0.53 4.1769 19.109288 -6.48635
455 1 2 0.53 3.25533 19.905162 -6.2062
456 1 2 0.53 3.645837 18.467186 -4.88085
457 1 2 0.53 2.27570615341 10.642494665 -8.372
458 1 2 0.53 2.94053105088 12.863498991 -8.26995
459 1 2 0.53 1.86763194278 12.7702185219 -6.0853
460 1 2 0.53 2.77690543886 7.03374717656 -6.48635
461 1 2 0.53 3.45759940362 9.13725527336 -6.2062
462 1 2 0.53 2.86501691246 8.7962784086 -4.88085
463 1 2 0.53 1.38803184659 16.427611335 -8.372
464 1 2 0.53 1.66930794912 13.512555009 -8.26995
465 1 2 0.53 2.17998305722 16.4713974781 -6.0853
466 1 2 0.53 0.14029456114 16.8715648234 -6.48635
467 1 2 0.53 0.381170596382 13.9721827266 -6.2062
468 1 2 0.53 0.583246087537 15.7511355914 -4.88085
469 1 2 0.53 4.199442 3.31441 -4.22825
470 1 2 0.53 5.201898 6.869868 -4.12815
471 1 2 0.53 3.726723 3.960668 -1.94285
472 1 2 0.53 4.745754 1.747598 -2.34
473 1 2 0.53 5.758155 5.259418 -2.04815
474 1 2 0.53 4.929405 3.39753 -0.73255
475 1 2 0.53 3.53217173176 9.33146219583 -4.22825
476 1 2 0.53 4.01335688763 4.83273680276 -4.12815
477 1 2 0.53 3.94709960784 10.2914485584 -1.94285
478 1 2 0.53 2.82608790035 8.63199714564 -2.34
479 1 2 0.53 3.29024288453 4.12809674074 -2.04815
480 1 2 0.53 3.19015722547 7.30854172707 -0.73255
481 1 2 0.53 5.52838626824 8.13412780417 -4.22825
482 1 2 0.53 4.04474511237 9.07739519724 -4.12815
483 1 2 0.53 5.58617739216 6.52788344157 -1.94285
484 1 2 0.53 5.68815809965 10.4004048544 -2.34
485 1 2 0.53 4.21160211547 11.3924852593 -2.04815
486 1 2 0.53 5.14043777453 10.0739282729 -0.73255
487 1 2 0.53 7.080177 3.779882 -7.40285
488 1 2 0.53 5.955729 0.604698 -7.2969
489 1 2 0.53 7.450794 2.749194 -5.1207
490 1 2 0.53 6.730113 5.9223 -5.5289
491 1 2 0.53 5.60235 2.81569 -5.21365
492 1 2 0.53 6.466902 4.29107 -3.91235
493 1 2 0.53 7.44933553889 -3.11186993577 -7.40285
494 1 2 0.53 7.13422037923 1.52784500248 -7.2969
495 1 2 0.53 6.9792363169 -3.60250277686 -5.1207
496 1 2 0.53 8.21634180172 -3.23288971915 -5.5289
497 1 2 0.53 7.92183191187 1.38153622305 -5.21365
498 1 2 0.53 7.89722005019 -1.70283320589 -3.91235
499 1 2 0.53 5.36048746111 -0.668012064226 -7.40285
500 1 2 0.53 6.80005062077 -2.13254300248 -7.2969
501 1 2 0.53 5.4599696831 0.853308776861 -5.1207
502 1 2 0.53 4.94354519828 -2.68941028085 -5.5289
503 1 2 0.53 6.36581808813 -4.19722622305 -5.21365
504 1 2 0.53 5.52587794981 -2.58823679411 -3.91235
505 2 2 0.53 10.060362 15.944494 -8.372
506 2 2 0.53 9.114261 16.638546 -8.26995
507 2 2 0.53 9.676485 13.772984 -6.0853
508 2 2 0.53 10.8069 19.109288 -6.48635
509 2 2 0.53 9.88533 19.905162 -6.2062
510 2 2 0.53 10.275837 18.467186 -4.88085
511 2 2 0.53 8.90570615341 10.642494665 -8.372
512 2 2 0.53 9.57053105088 12.863498991 -8.26995
513 2 2 0.53 8.49763194278 12.7702185219 -6.0853
514 2 2 0.53 9.40690543886 7.03374717656 -6.48635
515 2 2 0.53 10.0875994036 9.13725527336 -6.2062
516 2 2 0.53 9.49501691246 8.7962784086 -4.88085
517 2 2 0.53 8.01803184659 16.427611335 -8.372
518 2 2 0.53 8.29930794912 13.512555009 -8.26995
519 2 2 0.53 8.80998305722 16.4713974781 -6.0853
520 2 2 0.53 6.77029456114 16.8715648234 -6.48635
521 2 2 0.53 7.01117059638 13.9721827266 -6.2062
522 2 2 0.53 7.21324608754 15.7511355914 -4.88085
523 2 2 0.53 10.829442 3.31441 -4.22825
524 2 2 0.53 11.831898 6.869868 -4.12815
525 2 2 0.53 10.356723 3.960668 -1.94285
526 2 2 0.53 11.375754 1.747598 -2.34
527 2 2 0.53 12.388155 5.259418 -2.04815
528 2 2 0.53 11.559405 3.39753 -0.73255
529 2 2 0.53 10.1621717318 9.33146219583 -4.22825
530 2 2 0.53 10.6433568876 4.83273680276 -4.12815
531 2 2 0.53 10.5770996078 10.2914485584 -1.94285
532 2 2 0.53 9.45608790035 8.63199714564 -2.34
533 2 2 0.53 9.92024288453 4.12809674074 -2.04815
534 2 2 0.53 9.82015722547 7.30854172707 -0.73255
535 2 2 0.53 12.1583862682 8.13412780417 -4.22825
536 2 2 0.53 10.6747451124 9.07739519724 -4.12815
537 2 2 0.53 12.2161773922 6.52788344157 -1.94285
538 2 2 0.53 12.3181580996 10.4004048544 -2.34
539 2 2 0.53 10.8416021155 11.3924852593 -2.04815
540 2 2 0.53 11.7704377745 10.0739282729 -0.73255
541 2 2 0.53 0.450177 24.559882 -7.40285
542 2 2 0.53 -0.674271 21.384698 -7.2969
543 2 2 0.53 0.820794 23.529194 -5.1207
544 2 2 0.53 0.100113 26.7023 -5.5289
545 2 2 0.53 -1.02765 23.59569 -5.21365
546 2 2 0.53 -0.163098 25.07107 -3.91235
547 2 2 0.53 0.819335538888 17.6681300642 -7.40285
548 2 2 0.53 0.504220379228 22.3078450025 -7.2969
549 2 2 0.53 0.349236316904 17.1774972231 -5.1207
550 2 2 0.53 1.58634180172 17.5471102809 -5.5289
551 2 2 0.53 1.29183191187 22.161536223 -5.21365
552 2 2 0.53 1.26722005019 19.0771667941 -3.91235
553 2 2 0.53 -1.26951253889 20.1119879358 -7.40285
554 2 2 0.53 0.170050620772 18.6474569975 -7.2969
555 2 2 0.53 -1.1700303169 21.6333087769 -5.1207
556 2 2 0.53 -1.68645480172 18.0905897191 -5.5289
557 2 2 0.53 -0.264181911871 16.582773777 -5.21365
558 2 2 0.53 -1.10412205019 18.1917632059 -3.91235
559 2 2 0.53 3.430362 36.724494 -8.372
560 2 2 0.53 2.484261 37.418546 -8.26995
561 2 2 0.53 3.046485 34.552984 -6.0853
562 2 2 0.53 4.1769 39.889288 -6.48635
563 2 2 0.53 3.25533 40.685162 -6.2062
564 2 2 0.53 3.645837 39.247186 -4.88085
565 2 2 0.53 2.27570615341 31.422494665 -8.372
566 2 2 0.53 2.94053105088 33.643498991 -8.26995
567 2 2 0.53 1.86763194278 33.5502185219 -6.0853
568 2 2 0.53 2.77690543886 27.8137471766 -6.48635
569 2 2 0.53 3.45759940362 29.9172552734 -6.2062
570 2 2 0.53 2.86501691246 29.5762784086 -4.88085
571 2 2 0.53 1.38803184659 37.207611335 -8.372
572 2 2 0.53 1.66930794912 34.292555009 -8.26995
573 2 2 0.53 2.17998305722 37.2513974781 -6.0853
574 2 2 0.53 0.14029456114 37.6515648234 -6.48635
575 2 2 0.53 0.381170596382 34.7521827266 -6.2062
576 2 2 0.53 0.583246087537 36.5311355914 -4.88085
577 3 2 0.53 4.199442 24.09441 -4.22825
578 3 2 0.53 5.201898 27.649868 -4.12815
579 3 2 0.53 3.726723 24.740668 -1.94285
580 3 2 0.53 4.745754 22.527598 -2.34
581 3 2 0.53 5.758155 26.039418 -2.04815
582 3 2 0.53 4.929405 24.17753 -0.73255
583 3 2 0.53 3.53217173176 30.1114621958 -4.22825
584 3 2 0.53 4.01335688763 25.6127368028 -4.12815
585 3 2 0.53 3.94709960784 31.0714485584 -1.94285
586 3 2 0.53 2.82608790035 29.4119971456 -2.34
587 3 2 0.53 3.29024288453 24.9080967407 -2.04815
588 3 2 0.53 3.19015722547 28.0885417271 -0.73255
589 3 2 0.53 5.52838626824 28.9141278042 -4.22825
590 3 2 0.53 4.04474511237 29.8573951972 -4.12815
591 3 2 0.53 5.58617739216 27.3078834416 -1.94285
592 3 2 0.53 5.68815809965 31.1804048544 -2.34
593 3 2 0.53 4.21160211547 32.1724852593 -2.04815
594 3 2 0.53 5.14043777453 30.8539282729 -0.73255
595 3 2 0.53 7.080177 24.559882 -7.40285
596 3 2 0.53 5.955729 21.384698 -7.2969
597 3 2 0.53 7.450794 23.529194 -5.1207
598 3 2 0.53 6.730113 26.7023 -5.5289
599 3 2 0.53 5.60235 23.59569 -5.21365
600 3 2 0.53 6.466902 25.07107 -3.91235
601 3 2 0.53 7.44933553889 17.6681300642 -7.40285
602 3 2 0.53 7.13422037923 22.3078450025 -7.2969
603 3 2 0.53 6.9792363169 17.1774972231 -5.1207
604 3 2 0.53 8.21634180172 17.5471102809 -5.5289
605 3 2 0.53 7.92183191187 22.161536223 -5.21365
606 3 2 0.53 7.89722005019 19.0771667941 -3.91235
607 3 2 0.53 5.36048746111 20.1119879358 -7.40285
608 3 2 0.53 6.80005062077 18.6474569975 -7.2969
609 3 2 0.53 5.4599696831 21.6333087769 -5.1207
610 3 2 0.53 4.94354519828 18.0905897191 -5.5289
611 3 2 0.53 6.36581808813 16.582773777 -5.21365
612 3 2 0.53 5.52587794981 18.1917632059 -3.91235
613 3 2 0.53 10.060362 36.724494 -8.372
614 3 2 0.53 9.114261 37.418546 -8.26995
615 3 2 0.53 9.676485 34.552984 -6.0853
616 3 2 0.53 10.8069 39.889288 -6.48635
617 3 2 0.53 9.88533 40.685162 -6.2062
618 3 2 0.53 10.275837 39.247186 -4.88085
619 3 2 0.53 8.90570615341 31.422494665 -8.372
620 3 2 0.53 9.57053105088 33.643498991 -8.26995
621 3 2 0.53 8.49763194278 33.5502185219 -6.0853
622 3 2 0.53 9.40690543886 27.8137471766 -6.48635
623 3 2 0.53 10.0875994036 29.9172552734 -6.2062
624 3 2 0.53 9.49501691246 29.5762784086 -4.88085
625 3 2 0.53 8.01803184659 37.207611335 -8.372
626 3 2 0.53 8.29930794912 34.292555009 -8.26995
627 3 2 0.53 8.80998305722 37.2513974781 -6.0853
628 3 2 0.53 6.77029456114 37.6515648234 -6.48635
629 3 2 0.53 7.01117059638 34.7521827266 -6.2062