LAMMPS data file via write_data, version 7 Aug 2019, timestep = 1000000

81 atoms
2 atom types
-2.68645480172 6.758155  xlo xhi
-5.19722622305 20.905162  ylo yhi
-9.372 -1.73255  zlo zhi

Masses

1 12.0112
2 12.0112
3 12.0112
4 1.00797

Atoms #full

1 1 0.063648 1.531486 -6.9836
2 1 0.080886 1.726818 -5.44245
3 1 -0.272493 3.786116 -5.0011
4 1 0.391342859077 -0.93850467575 -6.9836
5 1 0.436696294291 -1.08296029627 -5.44245
6 1 1.18239306342 -1.15342207569 -5.0011
7 1 -0.454990859077 -0.59298132425 -6.9836
8 1 -0.517582294291 -0.643857703734 -5.44245
9 1 -0.909900063416 -2.63269392431 -5.0011
10 1 2.718963 15.094592 -7.9547
11 1 2.77797 15.225506 -6.41225
12 1 3.497988 18.33835 -5.97285
13 1 2.39656814275 12.9984173117 -7.9547
14 1 2.40323765784 12.7727958415 -6.41225
15 1 2.90334257221 9.26200738456 -5.97285
16 1 1.97856885725 14.9215906883 -7.9547
17 1 1.91289234216 15.0162981585 -6.41225
18 1 0.692769427785 15.4142426154 -5.97285
19 1 4.462653 5.544104 -3.81225
20 1 4.460001 5.384098 -2.2698
21 1 5.004324 3.877548 -1.82455
22 1 4.01665583798 7.50217368257 -3.81225
23 1 3.9737703751 7.58937508573 -2.2698
24 1 3.28533211413 6.8651778379 -1.82455
25 1 4.78069116202 7.73372231743 -3.81225
26 1 4.8262286249 7.80652691427 -2.2698
27 1 4.97034388587 10.0372741621 -1.82455
28 2 0.450177 3.779882 -7.40285
29 2 -0.674271 0.604698 -7.2969
30 2 0.820794 2.749194 -5.1207
31 2 0.100113 5.9223 -5.5289
32 2 -1.02765 2.81569 -5.21365
33 2 -0.163098 4.29107 -3.91235
34 2 0.819335538888 -3.11186993577 -7.40285
35 2 0.504220379228 1.52784500248 -7.2969
36 2 0.349236316904 -3.60250277686 -5.1207
37 2 1.58634180172 -3.23288971915 -5.5289
38 2 1.29183191187 1.38153622305 -5.21365
39 2 1.26722005019 -1.70283320589 -3.91235
40 2 -1.26951253889 -0.668012064226 -7.40285
41 2 0.170050620772 -2.13254300248 -7.2969
42 2 -1.1700303169 0.853308776861 -5.1207
43 2 -1.68645480172 -2.68941028085 -5.5289
44 2 -0.264181911871 -4.19722622305 -5.21365
45 2 -1.10412205019 -2.58823679411 -3.91235
46 2 3.430362 15.944494 -8.372
47 2 2.484261 16.638546 -8.26995
48 2 3.046485 13.772984 -6.0853
49 2 4.1769 19.109288 -6.48635
50 2 3.25533 19.905162 -6.2062
51 2 3.645837 18.467186 -4.88085
52 2 2.27570615341 10.642494665 -8.372
53 2 2.94053105088 12.863498991 -8.26995
54 2 1.86763194278 12.7702185219 -6.0853
55 2 2.77690543886 7.03374717656 -6.48635
56 2 3.45759940362 9.13725527336 -6.2062
57 2 2.86501691246 8.7962784086 -4.88085
58 2 1.38803184659 16.427611335 -8.372
59 2 1.66930794912 13.512555009 -8.26995
60 2 2.17998305722 16.4713974781 -6.0853
61 2 0.14029456114 16.8715648234 -6.48635
62 2 0.381170596382 13.9721827266 -6.2062
63 2 0.583246087537 15.7511355914 -4.88085
64 2 4.199442 3.31441 -4.22825
65 2 5.201898 6.869868 -4.12815
66 2 3.726723 3.960668 -1.94285
67 2 4.745754 1.747598 -2.34
68 2 5.758155 5.259418 -2.04815
69 2 4.929405 3.39753 -0.73255
70 2 3.53217173176 9.33146219583 -4.22825
71 2 4.01335688763 4.83273680276 -4.12815
72 2 3.94709960784 10.2914485584 -1.94285
73 2 2.82608790035 8.63199714564 -2.34
74 2 3.29024288453 4.12809674074 -2.04815
75 2 3.19015722547 7.30854172707 -0.73255
76 2 5.52838626824 8.13412780417 -4.22825
77 2 4.04474511237 9.07739519724 -4.12815
78 2 5.58617739216 6.52788344157 -1.94285
79 2 5.68815809965 10.4004048544 -2.34
80 2 4.21160211547 11.3924852593 -2.04815
81 2 5.14043777453 10.0739282729 -0.73255
