LAMMPS data file via write_data, version 7 Aug 2019, timestep = 1000000

14580 atoms
2 atom types
9720 bonds
2  bond types
-2.68645480172 33.278155  xlo xhi
-5.19722622305 83.245162  ylo yhi
-9.372 52.26745  zlo zhi

Masses

1 12.0112
2 12.0112
3 12.0112
4 1.00797

Atoms #full

1 1 1 0.53 0.063648 1.531486 -6.9836
2 1 1 -0.106 0.080886 1.726818 -5.44245
3 1 1 -0.106 -0.272493 3.786116 -5.0011
4 1 1 0.53 0.391342859077 -0.93850467575 -6.9836
5 1 1 -0.106 0.436696294291 -1.08296029627 -5.44245
6 1 1 -0.106 1.18239306342 -1.15342207569 -5.0011
7 1 1 0.53 -0.454990859077 -0.59298132425 -6.9836
8 1 1 -0.106 -0.517582294291 -0.643857703734 -5.44245
9 1 1 -0.106 -0.909900063416 -2.63269392431 -5.0011
10 1 1 0.53 2.718963 15.094592 -7.9547
11 1 1 -0.106 2.77797 15.225506 -6.41225
12 1 1 -0.106 3.497988 18.33835 -5.97285
13 1 1 0.53 2.39656814275 12.9984173117 -7.9547
14 1 1 -0.106 2.40323765784 12.7727958415 -6.41225
15 1 1 -0.106 2.90334257221 9.26200738456 -5.97285
16 1 1 0.53 1.97856885725 14.9215906883 -7.9547
17 1 1 -0.106 1.91289234216 15.0162981585 -6.41225
18 1 1 -0.106 0.692769427785 15.4142426154 -5.97285
19 1 1 0.53 4.462653 5.544104 -3.81225
20 1 1 -0.106 4.460001 5.384098 -2.2698
21 1 1 -0.106 5.004324 3.877548 -1.82455
22 1 1 0.53 4.01665583798 7.50217368257 -3.81225
23 1 1 -0.106 3.9737703751 7.58937508573 -2.2698
24 1 1 -0.106 3.28533211413 6.8651778379 -1.82455
25 1 1 0.53 4.78069116202 7.73372231743 -3.81225
26 1 1 -0.106 4.8262286249 7.80652691427 -2.2698
27 1 1 -0.106 4.97034388587 10.0372741621 -1.82455
28 1 1 0.53 6.693648 1.531486 -6.9836
29 1 1 -0.106 6.710886 1.726818 -5.44245
30 1 1 -0.106 6.357507 3.786116 -5.0011
31 1 1 0.53 7.02134285908 -0.93850467575 -6.9836
32 1 1 -0.106 7.06669629429 -1.08296029627 -5.44245
33 1 1 -0.106 7.81239306342 -1.15342207569 -5.0011
34 1 1 0.53 6.17500914092 -0.59298132425 -6.9836
35 1 1 -0.106 6.11241770571 -0.643857703734 -5.44245
36 1 1 -0.106 5.72009993658 -2.63269392431 -5.0011
37 1 1 0.53 9.348963 15.094592 -7.9547
38 1 1 -0.106 9.40797 15.225506 -6.41225
39 1 1 -0.106 10.127988 18.33835 -5.97285
40 1 1 0.53 9.02656814275 12.9984173117 -7.9547
41 1 1 -0.106 9.03323765784 12.7727958415 -6.41225
42 1 1 -0.106 9.53334257221 9.26200738456 -5.97285
43 1 1 0.53 8.60856885725 14.9215906883 -7.9547
44 1 1 -0.106 8.54289234216 15.0162981585 -6.41225
45 1 1 -0.106 7.32276942779 15.4142426154 -5.97285
46 1 1 0.53 11.092653 5.544104 -3.81225
47 1 1 -0.106 11.090001 5.384098 -2.2698
48 1 1 -0.106 11.634324 3.877548 -1.82455
49 1 1 0.53 10.646655838 7.50217368257 -3.81225
50 1 1 -0.106 10.6037703751 7.58937508573 -2.2698
51 1 1 -0.106 9.91533211413 6.8651778379 -1.82455
52 1 1 0.53 11.410691162 7.73372231743 -3.81225
53 1 1 -0.106 11.4562286249 7.80652691427 -2.2698
54 1 1 -0.106 11.6003438859 10.0372741621 -1.82455
55 1 1 0.53 13.323648 1.531486 -6.9836
56 1 1 -0.106 13.340886 1.726818 -5.44245
57 1 1 -0.106 12.987507 3.786116 -5.0011
58 1 1 0.53 13.6513428591 -0.93850467575 -6.9836
59 1 1 -0.106 13.6966962943 -1.08296029627 -5.44245
60 1 1 -0.106 14.4423930634 -1.15342207569 -5.0011
61 1 1 0.53 12.8050091409 -0.59298132425 -6.9836
62 1 1 -0.106 12.7424177057 -0.643857703734 -5.44245
63 1 1 -0.106 12.3500999366 -2.63269392431 -5.0011
64 1 1 0.53 15.978963 15.094592 -7.9547
65 1 1 -0.106 16.03797 15.225506 -6.41225
66 1 1 -0.106 16.757988 18.33835 -5.97285
67 1 1 0.53 15.6565681427 12.9984173117 -7.9547
68 1 1 -0.106 15.6632376578 12.7727958415 -6.41225
69 1 1 -0.106 16.1633425722 9.26200738456 -5.97285
70 1 1 0.53 15.2385688573 14.9215906883 -7.9547
71 1 1 -0.106 15.1728923422 15.0162981585 -6.41225
72 1 1 -0.106 13.9527694278 15.4142426154 -5.97285
73 1 1 0.53 17.722653 5.544104 -3.81225
74 1 1 -0.106 17.720001 5.384098 -2.2698
75 1 1 -0.106 18.264324 3.877548 -1.82455
76 1 1 0.53 17.276655838 7.50217368257 -3.81225
77 1 1 -0.106 17.2337703751 7.58937508573 -2.2698
78 1 1 -0.106 16.5453321141 6.8651778379 -1.82455
79 1 1 0.53 18.040691162 7.73372231743 -3.81225
80 1 1 -0.106 18.0862286249 7.80652691427 -2.2698
81 1 1 -0.106 18.2303438859 10.0372741621 -1.82455
82 1 1 0.53 19.953648 1.531486 -6.9836
83 1 1 -0.106 19.970886 1.726818 -5.44245
84 1 1 -0.106 19.617507 3.786116 -5.0011
85 1 1 0.53 20.2813428591 -0.93850467575 -6.9836
86 1 1 -0.106 20.3266962943 -1.08296029627 -5.44245
87 1 1 -0.106 21.0723930634 -1.15342207569 -5.0011
88 1 1 0.53 19.4350091409 -0.59298132425 -6.9836
89 1 1 -0.106 19.3724177057 -0.643857703734 -5.44245
90 1 1 -0.106 18.9800999366 -2.63269392431 -5.0011
91 1 1 0.53 22.608963 15.094592 -7.9547
92 1 1 -0.106 22.66797 15.225506 -6.41225
93 1 1 -0.106 23.387988 18.33835 -5.97285
94 1 1 0.53 22.2865681427 12.9984173117 -7.9547
95 1 1 -0.106 22.2932376578 12.7727958415 -6.41225
96 1 1 -0.106 22.7933425722 9.26200738456 -5.97285
97 1 1 0.53 21.8685688573 14.9215906883 -7.9547
98 1 1 -0.106 21.8028923422 15.0162981585 -6.41225
99 1 1 -0.106 20.5827694278 15.4142426154 -5.97285
100 1 1 0.53 24.352653 5.544104 -3.81225
101 1 1 -0.106 24.350001 5.384098 -2.2698
102 1 1 -0.106 24.894324 3.877548 -1.82455
103 1 1 0.53 23.906655838 7.50217368257 -3.81225
104 1 1 -0.106 23.8637703751 7.58937508573 -2.2698
105 1 1 -0.106 23.1753321141 6.8651778379 -1.82455
106 1 1 0.53 24.670691162 7.73372231743 -3.81225
107 1 1 -0.106 24.7162286249 7.80652691427 -2.2698
108 1 1 -0.106 24.8603438859 10.0372741621 -1.82455
109 1 1 0.53 26.583648 1.531486 -6.9836
110 1 1 -0.106 26.600886 1.726818 -5.44245
111 1 1 -0.106 26.247507 3.786116 -5.0011
112 1 1 0.53 26.9113428591 -0.93850467575 -6.9836
113 1 1 -0.106 26.9566962943 -1.08296029627 -5.44245
114 1 1 -0.106 27.7023930634 -1.15342207569 -5.0011
115 1 1 0.53 26.0650091409 -0.59298132425 -6.9836
116 1 1 -0.106 26.0024177057 -0.643857703734 -5.44245
117 1 1 -0.106 25.6100999366 -2.63269392431 -5.0011
118 1 1 0.53 29.238963 15.094592 -7.9547
119 1 1 -0.106 29.29797 15.225506 -6.41225
120 1 1 -0.106 30.017988 18.33835 -5.97285
121 1 1 0.53 28.9165681427 12.9984173117 -7.9547
122 1 1 -0.106 28.9232376578 12.7727958415 -6.41225
123 1 1 -0.106 29.4233425722 9.26200738456 -5.97285
124 1 1 0.53 28.4985688573 14.9215906883 -7.9547
125 1 1 -0.106 28.4328923422 15.0162981585 -6.41225
126 1 1 -0.106 27.2127694278 15.4142426154 -5.97285
127 1 1 0.53 30.982653 5.544104 -3.81225
128 1 1 -0.106 30.980001 5.384098 -2.2698
129 1 1 -0.106 31.524324 3.877548 -1.82455
130 1 1 0.53 30.536655838 7.50217368257 -3.81225
131 1 1 -0.106 30.4937703751 7.58937508573 -2.2698
132 1 1 -0.106 29.8053321141 6.8651778379 -1.82455
133 1 1 0.53 31.300691162 7.73372231743 -3.81225
134 1 1 -0.106 31.3462286249 7.80652691427 -2.2698
135 1 1 -0.106 31.4903438859 10.0372741621 -1.82455
136 1 1 0.53 0.063648 22.311486 -6.9836
137 1 1 -0.106 0.080886 22.506818 -5.44245
138 1 1 -0.106 -0.272493 24.566116 -5.0011
139 1 1 0.53 0.391342859077 19.8414953242 -6.9836
140 1 1 -0.106 0.436696294291 19.6970397037 -5.44245
141 1 1 -0.106 1.18239306342 19.6265779243 -5.0011
142 1 1 0.53 -0.454990859077 20.1870186758 -6.9836
143 1 1 -0.106 -0.517582294291 20.1361422963 -5.44245
144 1 1 -0.106 -0.909900063416 18.1473060757 -5.0011
145 1 1 0.53 2.718963 35.874592 -7.9547
146 1 1 -0.106 2.77797 36.005506 -6.41225
147 1 1 -0.106 3.497988 39.11835 -5.97285
148 1 1 0.53 2.39656814275 33.7784173117 -7.9547
149 1 1 -0.106 2.40323765784 33.5527958415 -6.41225
150 1 1 -0.106 2.90334257221 30.0420073846 -5.97285
151 1 1 0.53 1.97856885725 35.7015906883 -7.9547
152 1 1 -0.106 1.91289234216 35.7962981585 -6.41225
153 1 1 -0.106 0.692769427785 36.1942426154 -5.97285
154 1 1 0.53 4.462653 26.324104 -3.81225
155 1 1 -0.106 4.460001 26.164098 -2.2698
156 1 1 -0.106 5.004324 24.657548 -1.82455
157 1 1 0.53 4.01665583798 28.2821736826 -3.81225
158 1 1 -0.106 3.9737703751 28.3693750857 -2.2698
159 1 1 -0.106 3.28533211413 27.6451778379 -1.82455
160 1 1 0.53 4.78069116202 28.5137223174 -3.81225
161 1 1 -0.106 4.8262286249 28.5865269143 -2.2698
162 1 1 -0.106 4.97034388587 30.8172741621 -1.82455
163 1 1 0.53 6.693648 22.311486 -6.9836
164 1 1 -0.106 6.710886 22.506818 -5.44245
165 1 1 -0.106 6.357507 24.566116 -5.0011
166 1 1 0.53 7.02134285908 19.8414953242 -6.9836
167 1 1 -0.106 7.06669629429 19.6970397037 -5.44245
168 1 1 -0.106 7.81239306342 19.6265779243 -5.0011
169 1 1 0.53 6.17500914092 20.1870186758 -6.9836
170 1 1 -0.106 6.11241770571 20.1361422963 -5.44245
171 1 1 -0.106 5.72009993658 18.1473060757 -5.0011
172 1 1 0.53 9.348963 35.874592 -7.9547
173 1 1 -0.106 9.40797 36.005506 -6.41225
174 1 1 -0.106 10.127988 39.11835 -5.97285
175 1 1 0.53 9.02656814275 33.7784173117 -7.9547
176 1 1 -0.106 9.03323765784 33.5527958415 -6.41225
177 1 1 -0.106 9.53334257221 30.0420073846 -5.97285
178 1 1 0.53 8.60856885725 35.7015906883 -7.9547
179 1 1 -0.106 8.54289234216 35.7962981585 -6.41225
180 1 1 -0.106 7.32276942779 36.1942426154 -5.97285
181 2 1 0.53 11.092653 26.324104 -3.81225
182 2 1 -0.106 11.090001 26.164098 -2.2698
183 2 1 -0.106 11.634324 24.657548 -1.82455
184 2 1 0.53 10.646655838 28.2821736826 -3.81225
185 2 1 -0.106 10.6037703751 28.3693750857 -2.2698
186 2 1 -0.106 9.91533211413 27.6451778379 -1.82455
187 2 1 0.53 11.410691162 28.5137223174 -3.81225
188 2 1 -0.106 11.4562286249 28.5865269143 -2.2698
189 2 1 -0.106 11.6003438859 30.8172741621 -1.82455
190 2 1 0.53 13.323648 22.311486 -6.9836
191 2 1 -0.106 13.340886 22.506818 -5.44245
192 2 1 -0.106 12.987507 24.566116 -5.0011
193 2 1 0.53 13.6513428591 19.8414953242 -6.9836
194 2 1 -0.106 13.6966962943 19.6970397037 -5.44245
195 2 1 -0.106 14.4423930634 19.6265779243 -5.0011
196 2 1 0.53 12.8050091409 20.1870186758 -6.9836
197 2 1 -0.106 12.7424177057 20.1361422963 -5.44245
198 2 1 -0.106 12.3500999366 18.1473060757 -5.0011
199 2 1 0.53 15.978963 35.874592 -7.9547
200 2 1 -0.106 16.03797 36.005506 -6.41225
201 2 1 -0.106 16.757988 39.11835 -5.97285
202 2 1 0.53 15.6565681427 33.7784173117 -7.9547
203 2 1 -0.106 15.6632376578 33.5527958415 -6.41225
204 2 1 -0.106 16.1633425722 30.0420073846 -5.97285
205 2 1 0.53 15.2385688573 35.7015906883 -7.9547
206 2 1 -0.106 15.1728923422 35.7962981585 -6.41225
207 2 1 -0.106 13.9527694278 36.1942426154 -5.97285
208 2 1 0.53 17.722653 26.324104 -3.81225
209 2 1 -0.106 17.720001 26.164098 -2.2698
210 2 1 -0.106 18.264324 24.657548 -1.82455
211 2 1 0.53 17.276655838 28.2821736826 -3.81225
212 2 1 -0.106 17.2337703751 28.3693750857 -2.2698
213 2 1 -0.106 16.5453321141 27.6451778379 -1.82455
214 2 1 0.53 18.040691162 28.5137223174 -3.81225
215 2 1 -0.106 18.0862286249 28.5865269143 -2.2698
216 2 1 -0.106 18.2303438859 30.8172741621 -1.82455
217 2 1 0.53 19.953648 22.311486 -6.9836
218 2 1 -0.106 19.970886 22.506818 -5.44245
219 2 1 -0.106 19.617507 24.566116 -5.0011
220 2 1 0.53 20.2813428591 19.8414953242 -6.9836
221 2 1 -0.106 20.3266962943 19.6970397037 -5.44245
222 2 1 -0.106 21.0723930634 19.6265779243 -5.0011
223 2 1 0.53 19.4350091409 20.1870186758 -6.9836
224 2 1 -0.106 19.3724177057 20.1361422963 -5.44245
225 2 1 -0.106 18.9800999366 18.1473060757 -5.0011
226 2 1 0.53 22.608963 35.874592 -7.9547
227 2 1 -0.106 22.66797 36.005506 -6.41225
228 2 1 -0.106 23.387988 39.11835 -5.97285
229 2 1 0.53 22.2865681427 33.7784173117 -7.9547
230 2 1 -0.106 22.2932376578 33.5527958415 -6.41225
231 2 1 -0.106 22.7933425722 30.0420073846 -5.97285
232 2 1 0.53 21.8685688573 35.7015906883 -7.9547
233 2 1 -0.106 21.8028923422 35.7962981585 -6.41225
234 2 1 -0.106 20.5827694278 36.1942426154 -5.97285
235 2 1 0.53 24.352653 26.324104 -3.81225
236 2 1 -0.106 24.350001 26.164098 -2.2698
237 2 1 -0.106 24.894324 24.657548 -1.82455
238 2 1 0.53 23.906655838 28.2821736826 -3.81225
239 2 1 -0.106 23.8637703751 28.3693750857 -2.2698
240 2 1 -0.106 23.1753321141 27.6451778379 -1.82455
241 2 1 0.53 24.670691162 28.5137223174 -3.81225
242 2 1 -0.106 24.7162286249 28.5865269143 -2.2698
243 2 1 -0.106 24.8603438859 30.8172741621 -1.82455
244 2 1 0.53 26.583648 22.311486 -6.9836
245 2 1 -0.106 26.600886 22.506818 -5.44245
246 2 1 -0.106 26.247507 24.566116 -5.0011
247 2 1 0.53 26.9113428591 19.8414953242 -6.9836
248 2 1 -0.106 26.9566962943 19.6970397037 -5.44245
249 2 1 -0.106 27.7023930634 19.6265779243 -5.0011
250 2 1 0.53 26.0650091409 20.1870186758 -6.9836
251 2 1 -0.106 26.0024177057 20.1361422963 -5.44245
252 2 1 -0.106 25.6100999366 18.1473060757 -5.0011
253 2 1 0.53 29.238963 35.874592 -7.9547
254 2 1 -0.106 29.29797 36.005506 -6.41225
255 2 1 -0.106 30.017988 39.11835 -5.97285
256 2 1 0.53 28.9165681427 33.7784173117 -7.9547
257 2 1 -0.106 28.9232376578 33.5527958415 -6.41225
258 2 1 -0.106 29.4233425722 30.0420073846 -5.97285
259 2 1 0.53 28.4985688573 35.7015906883 -7.9547
260 2 1 -0.106 28.4328923422 35.7962981585 -6.41225
261 2 1 -0.106 27.2127694278 36.1942426154 -5.97285
262 2 1 0.53 30.982653 26.324104 -3.81225
263 2 1 -0.106 30.980001 26.164098 -2.2698
264 2 1 -0.106 31.524324 24.657548 -1.82455
265 2 1 0.53 30.536655838 28.2821736826 -3.81225
266 2 1 -0.106 30.4937703751 28.3693750857 -2.2698
267 2 1 -0.106 29.8053321141 27.6451778379 -1.82455
268 2 1 0.53 31.300691162 28.5137223174 -3.81225
269 2 1 -0.106 31.3462286249 28.5865269143 -2.2698
270 2 1 -0.106 31.4903438859 30.8172741621 -1.82455
271 2 1 0.53 0.063648 43.091486 -6.9836
272 2 1 -0.106 0.080886 43.286818 -5.44245
273 2 1 -0.106 -0.272493 45.346116 -5.0011
274 2 1 0.53 0.391342859077 40.6214953242 -6.9836
275 2 1 -0.106 0.436696294291 40.4770397037 -5.44245
276 2 1 -0.106 1.18239306342 40.4065779243 -5.0011
277 2 1 0.53 -0.454990859077 40.9670186758 -6.9836
278 2 1 -0.106 -0.517582294291 40.9161422963 -5.44245
279 2 1 -0.106 -0.909900063416 38.9273060757 -5.0011
280 2 1 0.53 2.718963 56.654592 -7.9547
281 2 1 -0.106 2.77797 56.785506 -6.41225
282 2 1 -0.106 3.497988 59.89835 -5.97285
283 2 1 0.53 2.39656814275 54.5584173117 -7.9547
284 2 1 -0.106 2.40323765784 54.3327958415 -6.41225
285 2 1 -0.106 2.90334257221 50.8220073846 -5.97285
286 2 1 0.53 1.97856885725 56.4815906883 -7.9547
287 2 1 -0.106 1.91289234216 56.5762981585 -6.41225
288 2 1 -0.106 0.692769427785 56.9742426154 -5.97285
289 2 1 0.53 4.462653 47.104104 -3.81225
290 2 1 -0.106 4.460001 46.944098 -2.2698
291 2 1 -0.106 5.004324 45.437548 -1.82455
292 2 1 0.53 4.01665583798 49.0621736826 -3.81225
293 2 1 -0.106 3.9737703751 49.1493750857 -2.2698
294 2 1 -0.106 3.28533211413 48.4251778379 -1.82455
295 2 1 0.53 4.78069116202 49.2937223174 -3.81225
296 2 1 -0.106 4.8262286249 49.3665269143 -2.2698
297 2 1 -0.106 4.97034388587 51.5972741621 -1.82455
298 2 1 0.53 6.693648 43.091486 -6.9836
299 2 1 -0.106 6.710886 43.286818 -5.44245
300 2 1 -0.106 6.357507 45.346116 -5.0011
301 2 1 0.53 7.02134285908 40.6214953242 -6.9836
302 2 1 -0.106 7.06669629429 40.4770397037 -5.44245
303 2 1 -0.106 7.81239306342 40.4065779243 -5.0011
304 2 1 0.53 6.17500914092 40.9670186758 -6.9836
305 2 1 -0.106 6.11241770571 40.9161422963 -5.44245
306 2 1 -0.106 5.72009993658 38.9273060757 -5.0011
307 2 1 0.53 9.348963 56.654592 -7.9547
308 2 1 -0.106 9.40797 56.785506 -6.41225
309 2 1 -0.106 10.127988 59.89835 -5.97285
310 2 1 0.53 9.02656814275 54.5584173117 -7.9547
311 2 1 -0.106 9.03323765784 54.3327958415 -6.41225
312 2 1 -0.106 9.53334257221 50.8220073846 -5.97285
313 2 1 0.53 8.60856885725 56.4815906883 -7.9547
314 2 1 -0.106 8.54289234216 56.5762981585 -6.41225
315 2 1 -0.106 7.32276942779 56.9742426154 -5.97285
316 2 1 0.53 11.092653 47.104104 -3.81225
317 2 1 -0.106 11.090001 46.944098 -2.2698
318 2 1 -0.106 11.634324 45.437548 -1.82455
319 2 1 0.53 10.646655838 49.0621736826 -3.81225
320 2 1 -0.106 10.6037703751 49.1493750857 -2.2698
321 2 1 -0.106 9.91533211413 48.4251778379 -1.82455
322 2 1 0.53 11.410691162 49.2937223174 -3.81225
323 2 1 -0.106 11.4562286249 49.3665269143 -2.2698
324 2 1 -0.106 11.6003438859 51.5972741621 -1.82455
325 2 1 0.53 13.323648 43.091486 -6.9836
326 2 1 -0.106 13.340886 43.286818 -5.44245
327 2 1 -0.106 12.987507 45.346116 -5.0011
328 2 1 0.53 13.6513428591 40.6214953242 -6.9836
329 2 1 -0.106 13.6966962943 40.4770397037 -5.44245
330 2 1 -0.106 14.4423930634 40.4065779243 -5.0011
331 2 1 0.53 12.8050091409 40.9670186758 -6.9836
332 2 1 -0.106 12.7424177057 40.9161422963 -5.44245
333 2 1 -0.106 12.3500999366 38.9273060757 -5.0011
334 2 1 0.53 15.978963 56.654592 -7.9547
335 2 1 -0.106 16.03797 56.785506 -6.41225
336 2 1 -0.106 16.757988 59.89835 -5.97285
337 2 1 0.53 15.6565681427 54.5584173117 -7.9547
338 2 1 -0.106 15.6632376578 54.3327958415 -6.41225
339 2 1 -0.106 16.1633425722 50.8220073846 -5.97285
340 2 1 0.53 15.2385688573 56.4815906883 -7.9547
341 2 1 -0.106 15.1728923422 56.5762981585 -6.41225
342 2 1 -0.106 13.9527694278 56.9742426154 -5.97285
343 2 1 0.53 17.722653 47.104104 -3.81225
344 2 1 -0.106 17.720001 46.944098 -2.2698
345 2 1 -0.106 18.264324 45.437548 -1.82455
346 2 1 0.53 17.276655838 49.0621736826 -3.81225
347 2 1 -0.106 17.2337703751 49.1493750857 -2.2698
348 2 1 -0.106 16.5453321141 48.4251778379 -1.82455
349 2 1 0.53 18.040691162 49.2937223174 -3.81225
350 2 1 -0.106 18.0862286249 49.3665269143 -2.2698
351 2 1 -0.106 18.2303438859 51.5972741621 -1.82455
352 2 1 0.53 19.953648 43.091486 -6.9836
353 2 1 -0.106 19.970886 43.286818 -5.44245
354 2 1 -0.106 19.617507 45.346116 -5.0011
355 2 1 0.53 20.2813428591 40.6214953242 -6.9836
356 2 1 -0.106 20.3266962943 40.4770397037 -5.44245
357 2 1 -0.106 21.0723930634 40.4065779243 -5.0011
358 2 1 0.53 19.4350091409 40.9670186758 -6.9836
359 2 1 -0.106 19.3724177057 40.9161422963 -5.44245
360 2 1 -0.106 18.9800999366 38.9273060757 -5.0011
361 3 1 0.53 22.608963 56.654592 -7.9547
362 3 1 -0.106 22.66797 56.785506 -6.41225
363 3 1 -0.106 23.387988 59.89835 -5.97285
364 3 1 0.53 22.2865681427 54.5584173117 -7.9547
365 3 1 -0.106 22.2932376578 54.3327958415 -6.41225
366 3 1 -0.106 22.7933425722 50.8220073846 -5.97285
367 3 1 0.53 21.8685688573 56.4815906883 -7.9547
368 3 1 -0.106 21.8028923422 56.5762981585 -6.41225
369 3 1 -0.106 20.5827694278 56.9742426154 -5.97285
370 3 1 0.53 24.352653 47.104104 -3.81225
371 3 1 -0.106 24.350001 46.944098 -2.2698
372 3 1 -0.106 24.894324 45.437548 -1.82455
373 3 1 0.53 23.906655838 49.0621736826 -3.81225
374 3 1 -0.106 23.8637703751 49.1493750857 -2.2698
375 3 1 -0.106 23.1753321141 48.4251778379 -1.82455
376 3 1 0.53 24.670691162 49.2937223174 -3.81225
377 3 1 -0.106 24.7162286249 49.3665269143 -2.2698
378 3 1 -0.106 24.8603438859 51.5972741621 -1.82455
379 3 1 0.53 26.583648 43.091486 -6.9836
380 3 1 -0.106 26.600886 43.286818 -5.44245
381 3 1 -0.106 26.247507 45.346116 -5.0011
382 3 1 0.53 26.9113428591 40.6214953242 -6.9836
383 3 1 -0.106 26.9566962943 40.4770397037 -5.44245
384 3 1 -0.106 27.7023930634 40.4065779243 -5.0011
385 3 1 0.53 26.0650091409 40.9670186758 -6.9836
386 3 1 -0.106 26.0024177057 40.9161422963 -5.44245
387 3 1 -0.106 25.6100999366 38.9273060757 -5.0011
388 3 1 0.53 29.238963 56.654592 -7.9547
389 3 1 -0.106 29.29797 56.785506 -6.41225
390 3 1 -0.106 30.017988 59.89835 -5.97285
391 3 1 0.53 28.9165681427 54.5584173117 -7.9547
392 3 1 -0.106 28.9232376578 54.3327958415 -6.41225
393 3 1 -0.106 29.4233425722 50.8220073846 -5.97285
394 3 1 0.53 28.4985688573 56.4815906883 -7.9547
395 3 1 -0.106 28.4328923422 56.5762981585 -6.41225
396 3 1 -0.106 27.2127694278 56.9742426154 -5.97285
397 3 1 0.53 30.982653 47.104104 -3.81225
398 3 1 -0.106 30.980001 46.944098 -2.2698
399 3 1 -0.106 31.524324 45.437548 -1.82455
400 3 1 0.53 30.536655838 49.0621736826 -3.81225
401 3 1 -0.106 30.4937703751 49.1493750857 -2.2698
402 3 1 -0.106 29.8053321141 48.4251778379 -1.82455
403 3 1 0.53 31.300691162 49.2937223174 -3.81225
404 3 1 -0.106 31.3462286249 49.3665269143 -2.2698
405 3 1 -0.106 31.4903438859 51.5972741621 -1.82455
406 3 1 0.53 0.063648 63.871486 -6.9836
407 3 1 -0.106 0.080886 64.066818 -5.44245
408 3 1 -0.106 -0.272493 66.126116 -5.0011
409 3 1 0.53 0.391342859077 61.4014953242 -6.9836
410 3 1 -0.106 0.436696294291 61.2570397037 -5.44245
411 3 1 -0.106 1.18239306342 61.1865779243 -5.0011
412 3 1 0.53 -0.454990859077 61.7470186758 -6.9836
413 3 1 -0.106 -0.517582294291 61.6961422963 -5.44245
414 3 1 -0.106 -0.909900063416 59.7073060757 -5.0011
415 3 1 0.53 2.718963 77.434592 -7.9547
416 3 1 -0.106 2.77797 77.565506 -6.41225
417 3 1 -0.106 3.497988 80.67835 -5.97285
418 3 1 0.53 2.39656814275 75.3384173117 -7.9547
419 3 1 -0.106 2.40323765784 75.1127958415 -6.41225
420 3 1 -0.106 2.90334257221 71.6020073846 -5.97285
421 3 1 0.53 1.97856885725 77.2615906883 -7.9547
422 3 1 -0.106 1.91289234216 77.3562981585 -6.41225
423 3 1 -0.106 0.692769427785 77.7542426154 -5.97285
424 3 1 0.53 4.462653 67.884104 -3.81225
425 3 1 -0.106 4.460001 67.724098 -2.2698
426 3 1 -0.106 5.004324 66.217548 -1.82455
427 3 1 0.53 4.01665583798 69.8421736826 -3.81225
428 3 1 -0.106 3.9737703751 69.9293750857 -2.2698
429 3 1 -0.106 3.28533211413 69.2051778379 -1.82455
430 3 1 0.53 4.78069116202 70.0737223174 -3.81225
431 3 1 -0.106 4.8262286249 70.1465269143 -2.2698
432 3 1 -0.106 4.97034388587 72.3772741621 -1.82455
433 3 1 0.53 6.693648 63.871486 -6.9836
434 3 1 -0.106 6.710886 64.066818 -5.44245
435 3 1 -0.106 6.357507 66.126116 -5.0011
436 3 1 0.53 7.02134285908 61.4014953242 -6.9836
437 3 1 -0.106 7.06669629429 61.2570397037 -5.44245
438 3 1 -0.106 7.81239306342 61.1865779243 -5.0011
439 3 1 0.53 6.17500914092 61.7470186758 -6.9836
440 3 1 -0.106 6.11241770571 61.6961422963 -5.44245
441 3 1 -0.106 5.72009993658 59.7073060757 -5.0011
442 3 1 0.53 9.348963 77.434592 -7.9547
443 3 1 -0.106 9.40797 77.565506 -6.41225
444 3 1 -0.106 10.127988 80.67835 -5.97285
445 3 1 0.53 9.02656814275 75.3384173117 -7.9547
446 3 1 -0.106 9.03323765784 75.1127958415 -6.41225
447 3 1 -0.106 9.53334257221 71.6020073846 -5.97285
448 3 1 0.53 8.60856885725 77.2615906883 -7.9547
449 3 1 -0.106 8.54289234216 77.3562981585 -6.41225
450 3 1 -0.106 7.32276942779 77.7542426154 -5.97285
451 3 1 0.53 11.092653 67.884104 -3.81225
452 3 1 -0.106 11.090001 67.724098 -2.2698
453 3 1 -0.106 11.634324 66.217548 -1.82455
454 3 1 0.53 10.646655838 69.8421736826 -3.81225
455 3 1 -0.106 10.6037703751 69.9293750857 -2.2698
456 3 1 -0.106 9.91533211413 69.2051778379 -1.82455
457 3 1 0.53 11.410691162 70.0737223174 -3.81225
458 3 1 -0.106 11.4562286249 70.1465269143 -2.2698
459 3 1 -0.106 11.6003438859 72.3772741621 -1.82455
460 3 1 0.53 13.323648 63.871486 -6.9836
461 3 1 -0.106 13.340886 64.066818 -5.44245
462 3 1 -0.106 12.987507 66.126116 -5.0011
463 3 1 0.53 13.6513428591 61.4014953242 -6.9836
464 3 1 -0.106 13.6966962943 61.2570397037 -5.44245
465 3 1 -0.106 14.4423930634 61.1865779243 -5.0011
466 3 1 0.53 12.8050091409 61.7470186758 -6.9836
467 3 1 -0.106 12.7424177057 61.6961422963 -5.44245
468 3 1 -0.106 12.3500999366 59.7073060757 -5.0011
469 3 1 0.53 15.978963 77.434592 -7.9547
470 3 1 -0.106 16.03797 77.565506 -6.41225
471 3 1 -0.106 16.757988 80.67835 -5.97285
472 3 1 0.53 15.6565681427 75.3384173117 -7.9547
473 3 1 -0.106 15.6632376578 75.1127958415 -6.41225
474 3 1 -0.106 16.1633425722 71.6020073846 -5.97285
475 3 1 0.53 15.2385688573 77.2615906883 -7.9547
476 3 1 -0.106 15.1728923422 77.3562981585 -6.41225
477 3 1 -0.106 13.9527694278 77.7542426154 -5.97285
478 3 1 0.53 17.722653 67.884104 -3.81225
479 3 1 -0.106 17.720001 67.724098 -2.2698
480 3 1 -0.106 18.264324 66.217548 -1.82455
481 3 1 0.53 17.276655838 69.8421736826 -3.81225
482 3 1 -0.106 17.2337703751 69.9293750857 -2.2698
483 3 1 -0.106 16.5453321141 69.2051778379 -1.82455
484 3 1 0.53 18.040691162 70.0737223174 -3.81225
485 3 1 -0.106 18.0862286249 70.1465269143 -2.2698
486 3 1 -0.106 18.2303438859 72.3772741621 -1.82455
487 3 1 0.53 19.953648 63.871486 -6.9836
488 3 1 -0.106 19.970886 64.066818 -5.44245
489 3 1 -0.106 19.617507 66.126116 -5.0011
490 3 1 0.53 20.2813428591 61.4014953242 -6.9836
491 3 1 -0.106 20.3266962943 61.2570397037 -5.44245
492 3 1 -0.106 21.0723930634 61.1865779243 -5.0011
493 3 1 0.53 19.4350091409 61.7470186758 -6.9836
494 3 1 -0.106 19.3724177057 61.6961422963 -5.44245
495 3 1 -0.106 18.9800999366 59.7073060757 -5.0011
496 3 1 0.53 22.608963 77.434592 -7.9547
497 3 1 -0.106 22.66797 77.565506 -6.41225
498 3 1 -0.106 23.387988 80.67835 -5.97285
499 3 1 0.53 22.2865681427 75.3384173117 -7.9547
500 3 1 -0.106 22.2932376578 75.1127958415 -6.41225
501 3 1 -0.106 22.7933425722 71.6020073846 -5.97285
502 3 1 0.53 21.8685688573 77.2615906883 -7.9547
503 3 1 -0.106 21.8028923422 77.3562981585 -6.41225
504 3 1 -0.106 20.5827694278 77.7542426154 -5.97285
505 3 1 0.53 24.352653 67.884104 -3.81225
506 3 1 -0.106 24.350001 67.724098 -2.2698
507 3 1 -0.106 24.894324 66.217548 -1.82455
508 3 1 0.53 23.906655838 69.8421736826 -3.81225
509 3 1 -0.106 23.8637703751 69.9293750857 -2.2698
510 3 1 -0.106 23.1753321141 69.2051778379 -1.82455
511 3 1 0.53 24.670691162 70.0737223174 -3.81225
512 3 1 -0.106 24.7162286249 70.1465269143 -2.2698
513 3 1 -0.106 24.8603438859 72.3772741621 -1.82455
514 3 1 0.53 26.583648 63.871486 -6.9836
515 3 1 -0.106 26.600886 64.066818 -5.44245
516 3 1 -0.106 26.247507 66.126116 -5.0011
517 3 1 0.53 26.9113428591 61.4014953242 -6.9836
518 3 1 -0.106 26.9566962943 61.2570397037 -5.44245
519 3 1 -0.106 27.7023930634 61.1865779243 -5.0011
520 3 1 0.53 26.0650091409 61.7470186758 -6.9836
521 3 1 -0.106 26.0024177057 61.6961422963 -5.44245
522 3 1 -0.106 25.6100999366 59.7073060757 -5.0011
523 3 1 0.53 29.238963 77.434592 -7.9547
524 3 1 -0.106 29.29797 77.565506 -6.41225
525 3 1 -0.106 30.017988 80.67835 -5.97285
526 3 1 0.53 28.9165681427 75.3384173117 -7.9547
527 3 1 -0.106 28.9232376578 75.1127958415 -6.41225
528 3 1 -0.106 29.4233425722 71.6020073846 -5.97285
529 3 1 0.53 28.4985688573 77.2615906883 -7.9547
530 3 1 -0.106 28.4328923422 77.3562981585 -6.41225
531 3 1 -0.106 27.2127694278 77.7542426154 -5.97285
532 3 1 0.53 30.982653 67.884104 -3.81225
533 3 1 -0.106 30.980001 67.724098 -2.2698
534 3 1 -0.106 31.524324 66.217548 -1.82455
535 3 1 0.53 30.536655838 69.8421736826 -3.81225
536 3 1 -0.106 30.4937703751 69.9293750857 -2.2698
537 3 1 -0.106 29.8053321141 69.2051778379 -1.82455
538 3 1 0.53 31.300691162 70.0737223174 -3.81225
539 3 1 -0.106 31.3462286249 70.1465269143 -2.2698
540 3 1 -0.106 31.4903438859 72.3772741621 -1.82455
541 4 1 0.53 0.063648 1.531486 -0.4836
542 4 1 -0.106 0.080886 1.726818 1.05755
543 4 1 -0.106 -0.272493 3.786116 1.4989
544 4 1 0.53 0.391342859077 -0.93850467575 -0.4836
545 4 1 -0.106 0.436696294291 -1.08296029627 1.05755
546 4 1 -0.106 1.18239306342 -1.15342207569 1.4989
547 4 1 0.53 -0.454990859077 -0.59298132425 -0.4836
548 4 1 -0.106 -0.517582294291 -0.643857703734 1.05755
549 4 1 -0.106 -0.909900063416 -2.63269392431 1.4989
550 4 1 0.53 2.718963 15.094592 -1.4547
551 4 1 -0.106 2.77797 15.225506 0.08775
552 4 1 -0.106 3.497988 18.33835 0.52715
553 4 1 0.53 2.39656814275 12.9984173117 -1.4547
554 4 1 -0.106 2.40323765784 12.7727958415 0.08775
555 4 1 -0.106 2.90334257221 9.26200738456 0.52715
556 4 1 0.53 1.97856885725 14.9215906883 -1.4547
557 4 1 -0.106 1.91289234216 15.0162981585 0.08775
558 4 1 -0.106 0.692769427785 15.4142426154 0.52715
559 4 1 0.53 4.462653 5.544104 2.68775
560 4 1 -0.106 4.460001 5.384098 4.2302
561 4 1 -0.106 5.004324 3.877548 4.67545
562 4 1 0.53 4.01665583798 7.50217368257 2.68775
563 4 1 -0.106 3.9737703751 7.58937508573 4.2302
564 4 1 -0.106 3.28533211413 6.8651778379 4.67545
565 4 1 0.53 4.78069116202 7.73372231743 2.68775
566 4 1 -0.106 4.8262286249 7.80652691427 4.2302
567 4 1 -0.106 4.97034388587 10.0372741621 4.67545
568 4 1 0.53 6.693648 1.531486 -0.4836
569 4 1 -0.106 6.710886 1.726818 1.05755
570 4 1 -0.106 6.357507 3.786116 1.4989
571 4 1 0.53 7.02134285908 -0.93850467575 -0.4836
572 4 1 -0.106 7.06669629429 -1.08296029627 1.05755
573 4 1 -0.106 7.81239306342 -1.15342207569 1.4989
574 4 1 0.53 6.17500914092 -0.59298132425 -0.4836
575 4 1 -0.106 6.11241770571 -0.643857703734 1.05755
576 4 1 -0.106 5.72009993658 -2.63269392431 1.4989
577 4 1 0.53 9.348963 15.094592 -1.4547
578 4 1 -0.106 9.40797 15.225506 0.08775
579 4 1 -0.106 10.127988 18.33835 0.52715
580 4 1 0.53 9.02656814275 12.9984173117 -1.4547
581 4 1 -0.106 9.03323765784 12.7727958415 0.08775
582 4 1 -0.106 9.53334257221 9.26200738456 0.52715
583 4 1 0.53 8.60856885725 14.9215906883 -1.4547
584 4 1 -0.106 8.54289234216 15.0162981585 0.08775
585 4 1 -0.106 7.32276942779 15.4142426154 0.52715
586 4 1 0.53 11.092653 5.544104 2.68775
587 4 1 -0.106 11.090001 5.384098 4.2302
588 4 1 -0.106 11.634324 3.877548 4.67545
589 4 1 0.53 10.646655838 7.50217368257 2.68775
590 4 1 -0.106 10.6037703751 7.58937508573 4.2302
591 4 1 -0.106 9.91533211413 6.8651778379 4.67545
592 4 1 0.53 11.410691162 7.73372231743 2.68775
593 4 1 -0.106 11.4562286249 7.80652691427 4.2302
594 4 1 -0.106 11.6003438859 10.0372741621 4.67545
595 4 1 0.53 13.323648 1.531486 -0.4836
596 4 1 -0.106 13.340886 1.726818 1.05755
597 4 1 -0.106 12.987507 3.786116 1.4989
598 4 1 0.53 13.6513428591 -0.93850467575 -0.4836
599 4 1 -0.106 13.6966962943 -1.08296029627 1.05755
600 4 1 -0.106 14.4423930634 -1.15342207569 1.4989
601 4 1 0.53 12.8050091409 -0.59298132425 -0.4836
602 4 1 -0.106 12.7424177057 -0.643857703734 1.05755
603 4 1 -0.106 12.3500999366 -2.63269392431 1.4989
604 4 1 0.53 15.978963 15.094592 -1.4547
605 4 1 -0.106 16.03797 15.225506 0.08775
606 4 1 -0.106 16.757988 18.33835 0.52715
607 4 1 0.53 15.6565681427 12.9984173117 -1.4547
608 4 1 -0.106 15.6632376578 12.7727958415 0.08775
609 4 1 -0.106 16.1633425722 9.26200738456 0.52715
610 4 1 0.53 15.2385688573 14.9215906883 -1.4547
611 4 1 -0.106 15.1728923422 15.0162981585 0.08775
612 4 1 -0.106 13.9527694278 15.4142426154 0.52715
613 4 1 0.53 17.722653 5.544104 2.68775
614 4 1 -0.106 17.720001 5.384098 4.2302
615 4 1 -0.106 18.264324 3.877548 4.67545
616 4 1 0.53 17.276655838 7.50217368257 2.68775
617 4 1 -0.106 17.2337703751 7.58937508573 4.2302
618 4 1 -0.106 16.5453321141 6.8651778379 4.67545
619 4 1 0.53 18.040691162 7.73372231743 2.68775
620 4 1 -0.106 18.0862286249 7.80652691427 4.2302
621 4 1 -0.106 18.2303438859 10.0372741621 4.67545
622 4 1 0.53 19.953648 1.531486 -0.4836