LAMMPS data file via write_data, version 7 Aug 2019, timestep = 1000000

324 atoms
2 atom types
216 bonds
2  bond types

-2.68645480172 6.758155  xlo xhi
-5.19722622305 20.905162  ylo yhi
-9.372 19.76745  zlo zhi

Masses

1 12.0112
2 12.0112
3 12.0112
4 1.00797

Pair Coeffs # lj/class2/coul/long

1 0.054 4.01
2 0.054 4.01
3 0.054 4.01
4 0.02 2.995

Bond Coeffs # class2

1 1.53 299.67 -501.77 679.81
2 1.101 345 -691.89 844.6

Atoms #full

1 1 1 0.53 0.063648 1.531486 -6.9836
2 1 1 -0.106 0.080886 1.726818 -5.44245
3 1 1 -0.106 -0.272493 3.786116 -5.0011
4 1 1 0.53 0.391342859077 -0.93850467575 -6.9836
5 1 1 -0.106 0.436696294291 -1.08296029627 -5.44245
6 1 1 -0.106 1.18239306342 -1.15342207569 -5.0011
7 1 1 0.53 -0.454990859077 -0.59298132425 -6.9836
8 1 1 -0.106 -0.517582294291 -0.643857703734 -5.44245
9 1 1 -0.106 -0.909900063416 -2.63269392431 -5.0011
10 2 1 0.53 2.718963 15.094592 -7.9547
11 2 1 -0.106 2.77797 15.225506 -6.41225
12 2 1 -0.106 3.497988 18.33835 -5.97285
13 2 1 0.53 2.39656814275 12.9984173117 -7.9547
14 2 1 -0.106 2.40323765784 12.7727958415 -6.41225
15 2 1 -0.106 2.90334257221 9.26200738456 -5.97285
16 2 1 0.53 1.97856885725 14.9215906883 -7.9547
17 2 1 -0.106 1.91289234216 15.0162981585 -6.41225
18 2 1 -0.106 0.692769427785 15.4142426154 -5.97285
19 3 1 0.53 4.462653 5.544104 -3.81225
20 3 1 -0.106 4.460001 5.384098 -2.2698
21 3 1 -0.106 5.004324 3.877548 -1.82455
22 3 1 0.53 4.01665583798 7.50217368257 -3.81225
23 3 1 -0.106 3.9737703751 7.58937508573 -2.2698
24 3 1 -0.106 3.28533211413 6.8651778379 -1.82455
25 3 1 0.53 4.78069116202 7.73372231743 -3.81225
26 3 1 -0.106 4.8262286249 7.80652691427 -2.2698
27 3 1 -0.106 4.97034388587 10.0372741621 -1.82455
28 4 1 0.53 0.063648 1.531486 -0.4836
29 4 1 -0.106 0.080886 1.726818 1.05755
30 4 1 -0.106 -0.272493 3.786116 1.4989
31 4 1 0.53 0.391342859077 -0.93850467575 -0.4836
32 4 1 -0.106 0.436696294291 -1.08296029627 1.05755
33 4 1 -0.106 1.18239306342 -1.15342207569 1.4989
34 4 1 0.53 -0.454990859077 -0.59298132425 -0.4836
35 4 1 -0.106 -0.517582294291 -0.643857703734 1.05755
36 4 1 -0.106 -0.909900063416 -2.63269392431 1.4989
37 5 1 0.53 2.718963 15.094592 -1.4547
38 5 1 -0.106 2.77797 15.225506 0.08775
39 5 1 -0.106 3.497988 18.33835 0.52715
40 5 1 0.53 2.39656814275 12.9984173117 -1.4547
41 5 1 -0.106 2.40323765784 12.7727958415 0.08775
42 5 1 -0.106 2.90334257221 9.26200738456 0.52715
43 5 1 0.53 1.97856885725 14.9215906883 -1.4547
44 5 1 -0.106 1.91289234216 15.0162981585 0.08775
45 5 1 -0.106 0.692769427785 15.4142426154 0.52715
46 6 1 0.53 4.462653 5.544104 2.68775
47 6 1 -0.106 4.460001 5.384098 4.2302
48 6 1 -0.106 5.004324 3.877548 4.67545
49 6 1 0.53 4.01665583798 7.50217368257 2.68775
50 6 1 -0.106 3.9737703751 7.58937508573 4.2302
51 6 1 -0.106 3.28533211413 6.8651778379 4.67545
52 6 1 0.53 4.78069116202 7.73372231743 2.68775
53 6 1 -0.106 4.8262286249 7.80652691427 4.2302
54 6 1 -0.106 4.97034388587 10.0372741621 4.67545
55 7 1 0.53 0.063648 1.531486 6.0164
56 7 1 -0.106 0.080886 1.726818 7.55755
57 7 1 -0.106 -0.272493 3.786116 7.9989
58 7 1 0.53 0.391342859077 -0.93850467575 6.0164
59 7 1 -0.106 0.436696294291 -1.08296029627 7.55755
60 7 1 -0.106 1.18239306342 -1.15342207569 7.9989
61 7 1 0.53 -0.454990859077 -0.59298132425 6.0164
62 7 1 -0.106 -0.517582294291 -0.643857703734 7.55755
63 7 1 -0.106 -0.909900063416 -2.63269392431 7.9989
64 8 1 0.53 2.718963 15.094592 5.0453
65 8 1 -0.106 2.77797 15.225506 6.58775
66 8 1 -0.106 3.497988 18.33835 7.02715
67 8 1 0.53 2.39656814275 12.9984173117 5.0453
68 8 1 -0.106 2.40323765784 12.7727958415 6.58775
69 8 1 -0.106 2.90334257221 9.26200738456 7.02715
70 8 1 0.53 1.97856885725 14.9215906883 5.0453
71 8 1 -0.106 1.91289234216 15.0162981585 6.58775
72 8 1 -0.106 0.692769427785 15.4142426154 7.02715
73 9 1 0.53 4.462653 5.544104 9.18775
74 9 1 -0.106 4.460001 5.384098 10.7302
75 9 1 -0.106 5.004324 3.877548 11.17545
76 9 1 0.53 4.01665583798 7.50217368257 9.18775
77 9 1 -0.106 3.9737703751 7.58937508573 10.7302
78 9 1 -0.106 3.28533211413 6.8651778379 11.17545
79 9 1 0.53 4.78069116202 7.73372231743 9.18775
80 9 1 -0.106 4.8262286249 7.80652691427 10.7302
81 9 1 -0.106 4.97034388587 10.0372741621 11.17545
82 10 1 0.53 0.063648 1.531486 12.5164
83 10 1 -0.106 0.080886 1.726818 14.05755
84 10 1 -0.106 -0.272493 3.786116 14.4989
85 10 1 0.53 0.391342859077 -0.93850467575 12.5164
86 10 1 -0.106 0.436696294291 -1.08296029627 14.05755
87 10 1 -0.106 1.18239306342 -1.15342207569 14.4989
88 10 1 0.53 -0.454990859077 -0.59298132425 12.5164
89 10 1 -0.106 -0.517582294291 -0.643857703734 14.05755
90 10 1 -0.106 -0.909900063416 -2.63269392431 14.4989
91 11 1 0.53 2.718963 15.094592 11.5453
92 11 1 -0.106 2.77797 15.225506 13.08775
93 11 1 -0.106 3.497988 18.33835 13.52715
94 11 1 0.53 2.39656814275 12.9984173117 11.5453
95 11 1 -0.106 2.40323765784 12.7727958415 13.08775
96 11 1 -0.106 2.90334257221 9.26200738456 13.52715
97 11 1 0.53 1.97856885725 14.9215906883 11.5453
98 11 1 -0.106 1.91289234216 15.0162981585 13.08775
99 11 1 -0.106 0.692769427785 15.4142426154 13.52715
100 12 1 0.53 4.462653 5.544104 15.68775
101 12 1 -0.106 4.460001 5.384098 17.2302
102 12 1 -0.106 5.004324 3.877548 17.67545
103 12 1 0.53 4.01665583798 7.50217368257 15.68775
104 12 1 -0.106 3.9737703751 7.58937508573 17.2302
105 12 1 -0.106 3.28533211413 6.8651778379 17.67545
106 12 1 0.53 4.78069116202 7.73372231743 15.68775
107 12 1 -0.106 4.8262286249 7.80652691427 17.2302
108 12 1 -0.106 4.97034388587 10.0372741621 17.67545
109 1 2 0 0.450177 3.779882 -7.40285
110 1 2 0.53 -0.674271 0.604698 -7.2969
111 1 2 0.53 0.820794 2.749194 -5.1207
112 1 2 0.53 0.100113 5.9223 -5.5289
113 1 2 0.53 -1.02765 2.81569 -5.21365
114 1 2 0.53 -0.163098 4.29107 -3.91235
115 1 2 0.53 0.819335538888 -3.11186993577 -7.40285
116 1 2 0.53 0.504220379228 1.52784500248 -7.2969
117 1 2 0.53 0.349236316904 -3.60250277686 -5.1207
118 1 2 0.53 1.58634180172 -3.23288971915 -5.5289
119 1 2 0.53 1.29183191187 1.38153622305 -5.21365
120 1 2 0.53 1.26722005019 -1.70283320589 -3.91235
121 1 2 0.53 -1.26951253889 -0.668012064226 -7.40285
122 1 2 0.53 0.170050620772 -2.13254300248 -7.2969
123 1 2 0.53 -1.1700303169 0.853308776861 -5.1207
124 1 2 0.53 -1.68645480172 -2.68941028085 -5.5289
125 1 2 0.53 -0.264181911871 -4.19722622305 -5.21365
126 1 2 0.53 -1.10412205019 -2.58823679411 -3.91235
127 2 2 0.53 3.430362 15.944494 -8.372
128 2 2 0.53 2.484261 16.638546 -8.26995
129 2 2 0.53 3.046485 13.772984 -6.0853
130 2 2 0.53 4.1769 19.109288 -6.48635
131 2 2 0.53 3.25533 19.905162 -6.2062
132 2 2 0.53 3.645837 18.467186 -4.88085
133 2 2 0.53 2.27570615341 10.642494665 -8.372
134 2 2 0.53 2.94053105088 12.863498991 -8.26995
135 2 2 0.53 1.86763194278 12.7702185219 -6.0853
136 2 2 0.53 2.77690543886 7.03374717656 -6.48635
137 2 2 0.53 3.45759940362 9.13725527336 -6.2062
138 2 2 0.53 2.86501691246 8.7962784086 -4.88085
139 2 2 0.53 1.38803184659 16.427611335 -8.372
140 2 2 0.53 1.66930794912 13.512555009 -8.26995
141 2 2 0.53 2.17998305722 16.4713974781 -6.0853
142 2 2 0.53 0.14029456114 16.8715648234 -6.48635
143 2 2 0.53 0.381170596382 13.9721827266 -6.2062
144 2 2 0.53 0.583246087537 15.7511355914 -4.88085
145 3 2 0.53 4.199442 3.31441 -4.22825
146 3 2 0.53 5.201898 6.869868 -4.12815
147 3 2 0.53 3.726723 3.960668 -1.94285
148 3 2 0.53 4.745754 1.747598 -2.34
149 3 2 0.53 5.758155 5.259418 -2.04815
150 3 2 0.53 4.929405 3.39753 -0.73255
151 3 2 0.53 3.53217173176 9.33146219583 -4.22825
152 3 2 0.53 4.01335688763 4.83273680276 -4.12815
153 3 2 0.53 3.94709960784 10.2914485584 -1.94285
154 3 2 0.53 2.82608790035 8.63199714564 -2.34
155 3 2 0.53 3.29024288453 4.12809674074 -2.04815
156 3 2 0.53 3.19015722547 7.30854172707 -0.73255
157 3 2 0.53 5.52838626824 8.13412780417 -4.22825
158 3 2 0.53 4.04474511237 9.07739519724 -4.12815
159 3 2 0.53 5.58617739216 6.52788344157 -1.94285
160 3 2 0.53 5.68815809965 10.4004048544 -2.34
161 3 2 0.53 4.21160211547 11.3924852593 -2.04815
162 3 2 0.53 5.14043777453 10.0739282729 -0.73255
163 4 2 0.53 0.450177 3.779882 -0.90285
164 4 2 0.53 -0.674271 0.604698 -0.7969
165 4 2 0.53 0.820794 2.749194 1.3793
166 4 2 0.53 0.100113 5.9223 0.9711
167 4 2 0.53 -1.02765 2.81569 1.28635
168 4 2 0.53 -0.163098 4.29107 2.58765
169 4 2 0.53 0.819335538888 -3.11186993577 -0.90285
170 4 2 0.53 0.504220379228 1.52784500248 -0.7969
171 4 2 0.53 0.349236316904 -3.60250277686 1.3793
172 4 2 0.53 1.58634180172 -3.23288971915 0.9711
173 4 2 0.53 1.29183191187 1.38153622305 1.28635
174 4 2 0.53 1.26722005019 -1.70283320589 2.58765
175 4 2 0.53 -1.26951253889 -0.668012064226 -0.90285
176 4 2 0.53 0.170050620772 -2.13254300248 -0.7969
177 4 2 0.53 -1.1700303169 0.853308776861 1.3793
178 4 2 0.53 -1.68645480172 -2.68941028085 0.9711
179 4 2 0.53 -0.264181911871 -4.19722622305 1.28635
180 4 2 0.53 -1.10412205019 -2.58823679411 2.58765
181 5 2 0.53 3.430362 15.944494 -1.872
182 5 2 0.53 2.484261 16.638546 -1.76995
183 5 2 0.53 3.046485 13.772984 0.4147
184 5 2 0.53 4.1769 19.109288 0.01365
185 5 2 0.53 3.25533 19.905162 0.2938
186 5 2 0.53 3.645837 18.467186 1.61915
187 5 2 0.53 2.27570615341 10.642494665 -1.872
188 5 2 0.53 2.94053105088 12.863498991 -1.76995
189 5 2 0.53 1.86763194278 12.7702185219 0.4147
190 5 2 0.53 2.77690543886 7.03374717656 0.01365
191 5 2 0.53 3.45759940362 9.13725527336 0.2938
192 5 2 0.53 2.86501691246 8.7962784086 1.61915
193 5 2 0.53 1.38803184659 16.427611335 -1.872
194 5 2 0.53 1.66930794912 13.512555009 -1.76995
195 5 2 0.53 2.17998305722 16.4713974781 0.4147
196 5 2 0.53 0.14029456114 16.8715648234 0.01365
197 5 2 0.53 0.381170596382 13.9721827266 0.2938
198 5 2 0.53 0.583246087537 15.7511355914 1.61915
199 6 2 0.53 4.199442 3.31441 2.27175
200 6 2 0.53 5.201898 6.869868 2.37185
201 6 2 0.53 3.726723 3.960668 4.55715
202 6 2 0.53 4.745754 1.747598 4.16
203 6 2 0.53 5.758155 5.259418 4.45185
204 6 2 0.53 4.929405 3.39753 5.76745
205 6 2 0.53 3.53217173176 9.33146219583 2.27175
206 6 2 0.53 4.01335688763 4.83273680276 2.37185
207 6 2 0.53 3.94709960784 10.2914485584 4.55715
208 6 2 0.53 2.82608790035 8.63199714564 4.16
209 6 2 0.53 3.29024288453 4.12809674074 4.45185
210 6 2 0.53 3.19015722547 7.30854172707 5.76745
211 6 2 0.53 5.52838626824 8.13412780417 2.27175
212 6 2 0.53 4.04474511237 9.07739519724 2.37185
213 6 2 0.53 5.58617739216 6.52788344157 4.55715
214 6 2 0.53 5.68815809965 10.4004048544 4.16
215 6 2 0.53 4.21160211547 11.3924852593 4.45185
216 6 2 0.53 5.14043777453 10.0739282729 5.76745
217 7 2 0.53 0.450177 3.779882 5.59715
218 7 2 0.53 -0.674271 0.604698 5.7031
219 7 2 0.53 0.820794 2.749194 7.8793
220 7 2 0.53 0.100113 5.9223 7.4711
221 7 2 0.53 -1.02765 2.81569 7.78635
222 7 2 0.53 -0.163098 4.29107 9.08765
223 7 2 0.53 0.819335538888 -3.11186993577 5.59715
224 7 2 0.53 0.504220379228 1.52784500248 5.7031
225 7 2 0.53 0.349236316904 -3.60250277686 7.8793
226 7 2 0.53 1.58634180172 -3.23288971915 7.4711
227 7 2 0.53 1.29183191187 1.38153622305 7.78635
228 7 2 0.53 1.26722005019 -1.70283320589 9.08765
229 7 2 0.53 -1.26951253889 -0.668012064226 5.59715
230 7 2 0.53 0.170050620772 -2.13254300248 5.7031
231 7 2 0.53 -1.1700303169 0.853308776861 7.8793
232 7 2 0.53 -1.68645480172 -2.68941028085 7.4711
233 7 2 0.53 -0.264181911871 -4.19722622305 7.78635
234 7 2 0.53 -1.10412205019 -2.58823679411 9.08765
235 8 2 0.53 3.430362 15.944494 4.628
236 8 2 0.53 2.484261 16.638546 4.73005
237 8 2 0.53 3.046485 13.772984 6.9147
238 8 2 0.53 4.1769 19.109288 6.51365
239 8 2 0.53 3.25533 19.905162 6.7938
240 8 2 0.53 3.645837 18.467186 8.11915
241 8 2 0.53 2.27570615341 10.642494665 4.628
242 8 2 0.53 2.94053105088 12.863498991 4.73005
243 8 2 0.53 1.86763194278 12.7702185219 6.9147
244 8 2 0.53 2.77690543886 7.03374717656 6.51365
245 8 2 0.53 3.45759940362 9.13725527336 6.7938
246 8 2 0.53 2.86501691246 8.7962784086 8.11915
247 8 2 0.53 1.38803184659 16.427611335 4.628
248 8 2 0.53 1.66930794912 13.512555009 4.73005
249 8 2 0.53 2.17998305722 16.4713974781 6.9147
250 8 2 0.53 0.14029456114 16.8715648234 6.51365
251 8 2 0.53 0.381170596382 13.9721827266 6.7938
252 8 2 0.53 0.583246087537 15.7511355914 8.11915
253 9 2 0.53 4.199442 3.31441 8.77175
254 9 2 0.53 5.201898 6.869868 8.87185
255 9 2 0.53 3.726723 3.960668 11.05715
256 9 2 0.53 4.745754 1.747598 10.66
257 9 2 0.53 5.758155 5.259418 10.95185
258 9 2 0.53 4.929405 3.39753 12.26745
259 9 2 0.53 3.53217173176 9.33146219583 8.77175
260 9 2 0.53 4.01335688763 4.83273680276 8.87185
261 9 2 0.53 3.94709960784 10.2914485584 11.05715
262 9 2 0.53 2.82608790035 8.63199714564 10.66
263 9 2 0.53 3.29024288453 4.12809674074 10.95185
264 9 2 0.53 3.19015722547 7.30854172707 12.26745
265 9 2 0.53 5.52838626824 8.13412780417 8.77175
266 9 2 0.53 4.04474511237 9.07739519724 8.87185
267 9 2 0.53 5.58617739216 6.52788344157 11.05715
268 9 2 0.53 5.68815809965 10.4004048544 10.66
269 9 2 0.53 4.21160211547 11.3924852593 10.95185
270 9 2 0.53 5.14043777453 10.0739282729 12.26745
271 10 2 0.53 0.450177 3.779882 12.09715
272 10 2 0.53 -0.674271 0.604698 12.2031
273 10 2 0.53 0.820794 2.749194 14.3793
274 10 2 0.53 0.100113 5.9223 13.9711
275 10 2 0.53 -1.02765 2.81569 14.28635
276 10 2 0.53 -0.163098 4.29107 15.58765
277 10 2 0.53 0.819335538888 -3.11186993577 12.09715
278 10 2 0.53 0.504220379228 1.52784500248 12.2031
279 10 2 0.53 0.349236316904 -3.60250277686 14.3793
280 10 2 0.53 1.58634180172 -3.23288971915 13.9711
281 10 2 0.53 1.29183191187 1.38153622305 14.28635
282 10 2 0.53 1.26722005019 -1.70283320589 15.58765
283 10 2 0.53 -1.26951253889 -0.668012064226 12.09715
284 10 2 0.53 0.170050620772 -2.13254300248 12.2031
285 10 2 0.53 -1.1700303169 0.853308776861 14.3793
286 10 2 0.53 -1.68645480172 -2.68941028085 13.9711
287 10 2 0.53 -0.264181911871 -4.19722622305 14.28635
288 10 2 0.53 -1.10412205019 -2.58823679411 15.58765
289 11 2 0.53 3.430362 15.944494 11.128
290 11 2 0.53 2.484261 16.638546 11.23005
291 11 2 0.53 3.046485 13.772984 13.4147
292 11 2 0.53 4.1769 19.109288 13.01365
293 11 2 0.53 3.25533 19.905162 13.2938
294 11 2 0.53 3.645837 18.467186 14.61915
295 11 2 0.53 2.27570615341 10.642494665 11.128
296 11 2 0.53 2.94053105088 12.863498991 11.23005
297 11 2 0.53 1.86763194278 12.7702185219 13.4147
298 11 2 0.53 2.77690543886 7.03374717656 13.01365
299 11 2 0.53 3.45759940362 9.13725527336 13.2938
300 11 2 0.53 2.86501691246 8.7962784086 14.61915
301 11 2 0.53 1.38803184659 16.427611335 11.128
302 11 2 0.53 1.66930794912 13.512555009 11.23005
303 11 2 0.53 2.17998305722 16.4713974781 13.4147
304 11 2 0.53 0.14029456114 16.8715648234 13.01365
305 11 2 0.53 0.381170596382 13.9721827266 13.2938
306 11 2 0.53 0.583246087537 15.7511355914 14.61915
307 12 2 0.53 4.199442 3.31441 15.27175
308 12 2 0.53 5.201898 6.869868 15.37185
309 12 2 0.53 3.726723 3.960668 17.55715
310 12 2 0.53 4.745754 1.747598 17.16
311 12 2 0.53 5.758155 5.259418 17.45185
312 12 2 0.53 4.929405 3.39753 18.76745
313 12 2 0.53 3.53217173176 9.33146219583 15.27175
314 12 2 0.53 4.01335688763 4.83273680276 15.37185
315 12 2 0.53 3.94709960784 10.2914485584 17.55715
316 12 2 0.53 2.82608790035 8.63199714564 17.16
317 12 2 0.53 3.29024288453 4.12809674074 17.45185
318 12 2 0.53 3.19015722547 7.30854172707 18.76745
319 12 2 0.53 5.52838626824 8.13412780417 15.27175
320 12 2 0.53 4.04474511237 9.07739519724 15.37185
321 12 2 0.53 5.58617739216 6.52788344157 17.55715
322 12 2 0.53 5.68815809965 10.4004048544 17.16
323 12 2 0.53 4.21160211547 11.3924852593 17.45185
324 12 2 0.53 5.14043777453 10.0739282729 18.76745


Bonds

1 1 1 2
2 1 4 5
3 1 4 7
4 1 5 6
5 1 5 8
6 1 7 8
7 1 10 11
8 1 10 16
9 1 11 17
10 1 13 14
11 1 16 17
12 1 17 18
13 1 19 20
14 1 22 23
15 1 22 25
16 1 23 24
17 1 23 26
18 1 25 26
19 1 28 29
20 1 31 32
21 1 31 34
22 1 32 33
23 1 32 35
24 1 34 35
25 1 37 38
26 1 37 43
27 1 38 44
28 1 40 41
29 1 43 44
30 1 44 45
31 1 46 47
32 1 49 50
33 1 49 52
34 1 50 51
35 1 50 53
36 1 52 53
37 1 55 56
38 1 58 59
39 1 58 61
40 1 59 60
41 1 59 62
42 1 61 62
43 1 64 65
44 1 64 70
45 1 65 71
46 1 67 68
47 1 70 71
48 1 71 72
49 1 73 74
50 1 76 77
51 1 76 79
52 1 77 78
53 1 77 80
54 1 79 80
55 1 82 83
56 1 85 86
57 1 85 88
58 1 86 87
59 1 86 89
60 1 88 89
61 1 91 92
62 1 91 97
63 1 92 98
64 1 94 95
65 1 97 98
66 1 98 99
67 1 100 101
68 1 103 104
69 1 103 106
70 1 104 105
71 1 104 107
72 1 106 107
73 2 225 18
74 2 226 19
75 2 228 22
76 2 228 24
77 2 231 30
78 2 234 36
79 2 237 42
80 2 240 48
81 2 241 38
82 2 243 45
83 2 243 54
84 2 252 72
85 2 253 73
86 2 255 76
87 2 255 78
88 2 258 84
89 2 261 90
90 2 264 96
91 2 267 102
92 2 268 92
93 2 270 99
94 2 270 108
95 2 279 126
96 2 280 127
97 2 282 130
98 2 282 132
99 2 285 138
100 2 288 144
101 2 291 150
102 2 294 156
103 2 295 146
104 2 297 153
105 2 297 162
106 2 306 180
107 2 307 181
108 2 309 184
109 2 309 186
110 2 312 192
111 2 315 198
112 2 318 204
113 2 321 210
114 2 322 200
