LAMMPS data file via write_data, version 7 Aug 2019, timestep = 1000000

324 atoms
4 atom types
216 bonds
2  bond types
208  angles
7  angle types
-3.82799859424 7.94433  xlo xhi
-7.91149242353 19.3652575846  ylo yhi
3.33985 27.3686993739  zlo zhi

Masses

1 12.0112
2 12.0112
3 12.0112
4 1.00797

Atoms #full

1 1 1 0.53 1.532193 3.70923 3.86815
2 1 1 -0.106 0.545649 1.604216 4.381
3 1 1 -0.106 0.461448 1.437976 5.9176
4 1 1 0.53 0.258805594236 -6.01349242353 3.86815
5 1 1 -0.106 0.170438478571 -2.2831794494 4.381
6 1 1 -0.106 0.166604991155 -1.97151014919 5.9176
7 1 1 0.53 -1.79099859424 2.30426242353 3.86815
8 1 1 -0.106 -0.716087478571 0.6789634494 4.381
9 1 1 -0.106 -0.628052991155 0.533534149189 5.9176
10 2 1 0.53 3.597438 14.157414 2.70985
11 2 1 -0.106 2.783937 14.498206 3.2227
12 2 1 -0.106 2.764047 14.527298 4.7632
13 2 1 0.53 1.60030191865 9.93532841542 2.70985
14 2 1 -0.106 2.10121709285 11.9730425836 3.2227
15 2 1 -0.106 2.11920054065 12.0124846073 4.7632
16 2 1 0.53 1.43226008135 17.4672575846 2.70985
17 2 1 -0.106 1.74484590715 15.0887514164 3.2227
18 2 1 -0.106 1.74675245935 15.0202173927 4.7632
19 3 1 0.53 5.90733 9.571268 4.1171
20 3 1 -0.106 4.91283 8.320312 4.6592
21 3 1 -0.106 4.935372 8.39512 6.1997
22 3 1 0.53 4.40706818315 1.5672615632 4.1171
23 3 1 -0.106 4.55866492784 4.8921407468 4.6592
24 3 1 -0.106 4.56806422218 4.79355031997 6.1997
25 3 1 0.53 2.94560181685 9.6414704368 4.1171
26 3 1 -0.106 3.78850507216 7.5675472532 4.6592
27 3 1 -0.106 3.75656377782 7.59132968003 6.1997
28 4 1 0.53 1.532193 3.70923 10.36815
29 4 1 -0.106 0.545649 1.604216 10.881
30 4 1 -0.106 0.461448 1.437976 12.4176
31 4 1 0.53 0.258805594236 -6.01349242353 10.36815
32 4 1 -0.106 0.170438478571 -2.2831794494 10.881
33 4 1 -0.106 0.166604991155 -1.97151014919 12.4176
34 4 1 0.53 -1.79099859424 2.30426242353 10.36815
35 4 1 -0.106 -0.716087478571 0.6789634494 10.881
36 4 1 -0.106 -0.628052991155 0.533534149189 12.4176
37 5 1 0.53 3.597438 14.157414 9.20985
38 5 1 -0.106 2.783937 14.498206 9.7227
39 5 1 -0.106 2.764047 14.527298 11.2632
40 5 1 0.53 1.60030191865 9.93532841542 9.20985
41 5 1 -0.106 2.10121709285 11.9730425836 9.7227
42 5 1 -0.106 2.11920054065 12.0124846073 11.2632
43 5 1 0.53 1.43226008135 17.4672575846 9.20985
44 5 1 -0.106 1.74484590715 15.0887514164 9.7227
45 5 1 -0.106 1.74675245935 15.0202173927 11.2632
46 6 1 0.53 5.90733 9.571268 10.6171
47 6 1 -0.106 4.91283 8.320312 11.1592
48 6 1 -0.106 4.935372 8.39512 12.6997
49 6 1 0.53 4.40706818315 1.5672615632 10.6171
50 6 1 -0.106 4.55866492784 4.8921407468 11.1592
51 6 1 -0.106 4.56806422218 4.79355031997 12.6997
52 6 1 0.53 2.94560181685 9.6414704368 10.6171
53 6 1 -0.106 3.78850507216 7.5675472532 11.1592
54 6 1 -0.106 3.75656377782 7.59132968003 12.6997
55 7 1 0.53 1.532193 3.70923 16.86815
56 7 1 -0.106 0.545649 1.604216 17.381
57 7 1 -0.106 0.461448 1.437976 18.9176
58 7 1 0.53 0.258805594236 -6.01349242353 16.86815
59 7 1 -0.106 0.170438478571 -2.2831794494 17.381
60 7 1 -0.106 0.166604991155 -1.97151014919 18.9176
61 7 1 0.53 -1.79099859424 2.30426242353 16.86815
62 7 1 -0.106 -0.716087478571 0.6789634494 17.381
63 7 1 -0.106 -0.628052991155 0.533534149189 18.9176
64 8 1 0.53 3.597438 14.157414 15.70985
65 8 1 -0.106 2.783937 14.498206 16.2227
66 8 1 -0.106 2.764047 14.527298 17.7632
67 8 1 0.53 1.60030191865 9.93532841542 15.70985
68 8 1 -0.106 2.10121709285 11.9730425836 16.2227
69 8 1 -0.106 2.11920054065 12.0124846073 17.7632
70 8 1 0.53 1.43226008135 17.4672575846 15.70985
71 8 1 -0.106 1.74484590715 15.0887514164 16.2227
72 8 1 -0.106 1.74675245935 15.0202173927 17.7632
73 9 1 0.53 5.90733 9.571268 17.1171
74 9 1 -0.106 4.91283 8.320312 17.6592
75 9 1 -0.106 4.935372 8.39512 19.1997
76 9 1 0.53 4.40706818315 1.5672615632 17.1171
77 9 1 -0.106 4.55866492784 4.8921407468 17.6592
78 9 1 -0.106 4.56806422218 4.79355031997 19.1997
79 9 1 0.53 2.94560181685 9.6414704368 17.1171
80 9 1 -0.106 3.78850507216 7.5675472532 17.6592
81 9 1 -0.106 3.75656377782 7.59132968003 19.1997
82 10 1 0.53 1.532193 3.70923 23.36815
83 10 1 -0.106 0.545649 1.604216 23.881
84 10 1 -0.106 0.461448 1.437976 25.4176
85 10 1 0.53 0.258805594236 -6.01349242353 23.36815
86 10 1 -0.106 0.170438478571 -2.2831794494 23.881
87 10 1 -0.106 0.166604991155 -1.97151014919 25.4176
88 10 1 0.53 -1.79099859424 2.30426242353 23.36815
89 10 1 -0.106 -0.716087478571 0.6789634494 23.881
90 10 1 -0.106 -0.628052991155 0.533534149189 25.4176
91 11 1 0.53 3.597438 14.157414 22.20985
92 11 1 -0.106 2.783937 14.498206 22.7227
93 11 1 -0.106 2.764047 14.527298 24.2632
94 11 1 0.53 1.60030191865 9.93532841542 22.20985
95 11 1 -0.106 2.10121709285 11.9730425836 22.7227
96 11 1 -0.106 2.11920054065 12.0124846073 24.2632
97 11 1 0.53 1.43226008135 17.4672575846 22.20985
98 11 1 -0.106 1.74484590715 15.0887514164 22.7227
99 11 1 -0.106 1.74675245935 15.0202173927 24.2632
100 12 1 0.53 5.90733 9.571268 23.6171
101 12 1 -0.106 4.91283 8.320312 24.1592
102 12 1 -0.106 4.935372 8.39512 25.6997
103 12 1 0.53 4.40706818315 1.5672615632 23.6171
104 12 1 -0.106 4.55866492784 4.8921407468 24.1592
105 12 1 -0.106 4.56806422218 4.79355031997 25.6997
106 12 1 0.53 2.94560181685 9.6414704368 23.6171
107 12 1 -0.106 3.78850507216 7.5675472532 24.1592
108 12 1 -0.106 3.75656377782 7.59132968003 25.6997
109 1 2 0 -0.466941964935 2.03013698291 4.32398373875
110 1 2 0.53 1.34609763988 1.68835727534 6.52150746942
111 1 2 0.53 -0.408641076086 1.85772425566 6.44367642177
112 1 2 0.53 1.24192208804 -2.37583841252 4.61194846005
113 1 2 0.53 -0.565825133838 -2.48115288606 6.56088095943
114 1 2 0.53 1.12207503261 -1.97598910371 6.4626293009
115 1 2 0.53 -1.72586053202 0.358640085153 4.6772284977
116 1 2 0.53 -0.801740568288 1.33119246569 6.65487459991
117 1 2 0.53 -0.59592305029 -0.412432090869 6.47806011417
118 1 2 0.53 2.569193 3.70923 3.49815
119 1 2 0.53 1.013693 4.60723 3.49815
120 1 2 0.53 1.013693 2.81123 3.49815
121 1 2 0.53 1.29580559424 -6.01349242353 3.49815
122 1 2 0.53 -0.259694405764 -6.91149242353 3.49815
123 1 2 0.53 -0.259694405764 -5.11549242353 3.49815
124 1 2 0.53 -2.82799859424 2.30426242353 3.49815
125 1 2 0.53 -1.27249859424 3.20226242353 3.49815
126 1 2 0.53 -1.27249859424 1.40626242353 3.49815
127 2 2 0.53 3.37966050446 15.4198201077 3.29846900893
128 2 2 0.53 3.69258458036 14.6194346045 5.34571936275
129 2 2 0.53 1.9893929808 15.0799207667 5.31503260888
130 2 2 0.53 3.16672271953 11.6998264743 3.22982159726
131 2 2 0.53 1.28936073585 11.5761172311 5.3384820277
132 2 2 0.53 3.04235619211 11.7766228312 5.31288433286
133 2 2 0.53 0.65320058002 14.953572783 3.22880056048
134 2 2 0.53 1.99931935204 15.8411184092 5.45046376732
135 2 2 0.53 1.32536783698 14.2118527493 5.37881481727
136 2 2 0.53 4.634438 14.157414 2.33985
137 2 2 0.53 3.078938 15.055414 2.33985
138 2 2 0.53 3.078938 13.259414 2.33985
139 2 2 0.53 2.63730191865 9.93532841542 2.33985
140 2 2 0.53 1.08180191865 10.8333284154 2.33985
141 2 2 0.53 1.08180191865 9.03732841542 2.33985
142 2 2 0.53 2.46926008135 17.4672575846 2.33985
143 2 2 0.53 0.91376008135 18.3652575846 2.33985
144 2 2 0.53 0.91376008135 16.5692575846 2.33985
145 3 2 0.53 4.0135434004 8.95056393198 4.59543391171
146 3 2 0.53 5.85645889001 8.67512878444 6.73185977082
147 3 2 0.53 4.10127064218 8.85645764071 6.74873780029
148 3 2 0.53 5.64947998622 4.78089346 4.74721448521
149 3 2 0.53 3.81224847889 4.20625520631 6.74175812573
150 3 2 0.53 5.50787763424 4.69437000398 6.76265116612
151 3 2 0.53 2.73726528183 7.26263344579 4.76839007872
152 3 2 0.53 3.32380704634 8.38253038902 6.82955954741
153 3 2 0.53 3.99748043541 6.75204486435 6.86869937389
154 3 2 0.53 6.94433 9.571268 3.7471
155 3 2 0.53 5.38883 10.469268 3.7471
156 3 2 0.53 5.38883 8.673268 3.7471
157 3 2 0.53 5.44406818315 1.5672615632 3.7471
158 3 2 0.53 3.88856818315 2.4652615632 3.7471
159 3 2 0.53 3.88856818315 0.6692615632 3.7471
160 3 2 0.53 3.98260181685 9.6414704368 3.7471
161 3 2 0.53 2.42710181685 10.5394704368 3.7471
162 3 2 0.53 2.42710181685 8.7434704368 3.7471
163 4 2 0.53 -0.466941964935 2.03013698291 10.8239837387
164 4 2 0.53 1.34609763988 1.68835727534 13.0215074694
165 4 2 0.53 -0.408641076086 1.85772425566 12.9436764218
166 4 2 0.53 1.24192208804 -2.37583841252 11.1119484601
167 4 2 0.53 -0.565825133838 -2.48115288606 13.0608809594
168 4 2 0.53 1.12207503261 -1.97598910371 12.9626293009
169 4 2 0.53 -1.72586053202 0.358640085153 11.1772284977
170 4 2 0.53 -0.801740568288 1.33119246569 13.1548745999
171 4 2 0.53 -0.59592305029 -0.412432090869 12.9780601142
172 4 2 0.53 2.569193 3.70923 9.99815
173 4 2 0.53 1.013693 4.60723 9.99815
174 4 2 0.53 1.013693 2.81123 9.99815
175 4 2 0.53 1.29580559424 -6.01349242353 9.99815
176 4 2 0.53 -0.259694405764 -6.91149242353 9.99815
177 4 2 0.53 -0.259694405764 -5.11549242353 9.99815
178 4 2 0.53 -2.82799859424 2.30426242353 9.99815
179 4 2 0.53 -1.27249859424 3.20226242353 9.99815
180 4 2 0.53 -1.27249859424 1.40626242353 9.99815
181 5 2 0.53 3.37966050446 15.4198201077 9.79846900893
182 5 2 0.53 3.69258458036 14.6194346045 11.8457193628
183 5 2 0.53 1.9893929808 15.0799207667 11.8150326089
184 5 2 0.53 3.16672271953 11.6998264743 9.72982159726
185 5 2 0.53 1.28936073585 11.5761172311 11.8384820277
186 5 2 0.53 3.04235619211 11.7766228312 11.8128843329
187 5 2 0.53 0.65320058002 14.953572783 9.72880056048
188 5 2 0.53 1.99931935204 15.8411184092 11.9504637673
189 5 2 0.53 1.32536783698 14.2118527493 11.8788148173
190 5 2 0.53 4.634438 14.157414 8.83985
191 5 2 0.53 3.078938 15.055414 8.83985
192 5 2 0.53 3.078938 13.259414 8.83985
193 5 2 0.53 2.63730191865 9.93532841542 8.83985
194 5 2 0.53 1.08180191865 10.8333284154 8.83985
195 5 2 0.53 1.08180191865 9.03732841542 8.83985
196 5 2 0.53 2.46926008135 17.4672575846 8.83985
197 5 2 0.53 0.91376008135 18.3652575846 8.83985
198 5 2 0.53 0.91376008135 16.5692575846 8.83985
199 6 2 0.53 4.0135434004 8.95056393198 11.0954339117
200 6 2 0.53 5.85645889001 8.67512878444 13.2318597708
201 6 2 0.53 4.10127064218 8.85645764071 13.2487378003
202 6 2 0.53 5.64947998622 4.78089346 11.2472144852
203 6 2 0.53 3.81224847889 4.20625520631 13.2417581257
204 6 2 0.53 5.50787763424 4.69437000398 13.2626511661
205 6 2 0.53 2.73726528183 7.26263344579 11.2683900787
206 6 2 0.53 3.32380704634 8.38253038902 13.3295595474
207 6 2 0.53 3.99748043541 6.75204486435 13.3686993739
208 6 2 0.53 6.94433 9.571268 10.2471
209 6 2 0.53 5.38883 10.469268 10.2471
210 6 2 0.53 5.38883 8.673268 10.2471
211 6 2 0.53 5.44406818315 1.5672615632 10.2471
212 6 2 0.53 3.88856818315 2.4652615632 10.2471
213 6 2 0.53 3.88856818315 0.6692615632 10.2471
214 6 2 0.53 3.98260181685 9.6414704368 10.2471
215 6 2 0.53 2.42710181685 10.5394704368 10.2471
216 6 2 0.53 2.42710181685 8.7434704368 10.2471
217 7 2 0.53 -0.466941964935 2.03013698291 17.3239837387
218 7 2 0.53 1.34609763988 1.68835727534 19.5215074694
219 7 2 0.53 -0.408641076086 1.85772425566 19.4436764218
220 7 2 0.53 1.24192208804 -2.37583841252 17.6119484601
221 7 2 0.53 -0.565825133838 -2.48115288606 19.5608809594
222 7 2 0.53 1.12207503261 -1.97598910371 19.4626293009
223 7 2 0.53 -1.72586053202 0.358640085153 17.6772284977
224 7 2 0.53 -0.801740568288 1.33119246569 19.6548745999
225 7 2 0.53 -0.59592305029 -0.412432090869 19.4780601142
226 7 2 0.53 2.569193 3.70923 16.49815
227 7 2 0.53 1.013693 4.60723 16.49815
228 7 2 0.53 1.013693 2.81123 16.49815
229 7 2 0.53 1.29580559424 -6.01349242353 16.49815
230 7 2 0.53 -0.259694405764 -6.91149242353 16.49815
231 7 2 0.53 -0.259694405764 -5.11549242353 16.49815
232 7 2 0.53 -2.82799859424 2.30426242353 16.49815
233 7 2 0.53 -1.27249859424 3.20226242353 16.49815
234 7 2 0.53 -1.27249859424 1.40626242353 16.49815
235 8 2 0.53 3.37966050446 15.4198201077 16.2984690089
236 8 2 0.53 3.69258458036 14.6194346045 18.3457193628
237 8 2 0.53 1.9893929808 15.0799207667 18.3150326089
238 8 2 0.53 3.16672271953 11.6998264743 16.2298215973
239 8 2 0.53 1.28936073585 11.5761172311 18.3384820277
240 8 2 0.53 3.04235619211 11.7766228312 18.3128843329
241 8 2 0.53 0.65320058002 14.953572783 16.2288005605
242 8 2 0.53 1.99931935204 15.8411184092 18.4504637673
243 8 2 0.53 1.32536783698 14.2118527493 18.3788148173
244 8 2 0.53 4.634438 14.157414 15.33985
245 8 2 0.53 3.078938 15.055414 15.33985
246 8 2 0.53 3.078938 13.259414 15.33985
247 8 2 0.53 2.63730191865 9.93532841542 15.33985
248 8 2 0.53 1.08180191865 10.8333284154 15.33985
249 8 2 0.53 1.08180191865 9.03732841542 15.33985
250 8 2 0.53 2.46926008135 17.4672575846 15.33985
251 8 2 0.53 0.91376008135 18.3652575846 15.33985
252 8 2 0.53 0.91376008135 16.5692575846 15.33985
253 9 2 0.53 4.0135434004 8.95056393198 17.5954339117
254 9 2 0.53 5.85645889001 8.67512878444 19.7318597708
255 9 2 0.53 4.10127064218 8.85645764071 19.7487378003
256 9 2 0.53 5.64947998622 4.78089346 17.7472144852
257 9 2 0.53 3.81224847889 4.20625520631 19.7417581257
258 9 2 0.53 5.50787763424 4.69437000398 19.7626511661
259 9 2 0.53 2.73726528183 7.26263344579 17.7683900787
260 9 2 0.53 3.32380704634 8.38253038902 19.8295595474
261 9 2 0.53 3.99748043541 6.75204486435 19.8686993739
262 9 2 0.53 6.94433 9.571268 16.7471
263 9 2 0.53 5.38883 10.469268 16.7471
264 9 2 0.53 5.38883 8.673268 16.7471
265 9 2 0.53 5.44406818315 1.5672615632 16.7471
266 9 2 0.53 3.88856818315 2.4652615632 16.7471
267 9 2 0.53 3.88856818315 0.6692615632 16.7471
268 9 2 0.53 3.98260181685 9.6414704368 16.7471
269 9 2 0.53 2.42710181685 10.5394704368 16.7471
270 9 2 0.53 2.42710181685 8.7434704368 16.7471
271 10 2 0.53 -0.466941964935 2.03013698291 23.8239837387
272 10 2 0.53 1.34609763988 1.68835727534 26.0215074694
273 10 2 0.53 -0.408641076086 1.85772425566 25.9436764218
274 10 2 0.53 1.24192208804 -2.37583841252 24.1119484601
275 10 2 0.53 -0.565825133838 -2.48115288606 26.0608809594
276 10 2 0.53 1.12207503261 -1.97598910371 25.9626293009
277 10 2 0.53 -1.72586053202 0.358640085153 24.1772284977
278 10 2 0.53 -0.801740568288 1.33119246569 26.1548745999
279 10 2 0.53 -0.59592305029 -0.412432090869 25.9780601142
280 10 2 0.53 2.569193 3.70923 22.99815
281 10 2 0.53 1.013693 4.60723 22.99815
282 10 2 0.53 1.013693 2.81123 22.99815
283 10 2 0.53 1.29580559424 -6.01349242353 22.99815
284 10 2 0.53 -0.259694405764 -6.91149242353 22.99815
285 10 2 0.53 -0.259694405764 -5.11549242353 22.99815
286 10 2 0.53 -2.82799859424 2.30426242353 22.99815
287 10 2 0.53 -1.27249859424 3.20226242353 22.99815
288 10 2 0.53 -1.27249859424 1.40626242353 22.99815
289 11 2 0.53 3.37966050446 15.4198201077 22.7984690089
290 11 2 0.53 3.69258458036 14.6194346045 24.8457193628
291 11 2 0.53 1.9893929808 15.0799207667 24.8150326089
292 11 2 0.53 3.16672271953 11.6998264743 22.7298215973
293 11 2 0.53 1.28936073585 11.5761172311 24.8384820277
294 11 2 0.53 3.04235619211 11.7766228312 24.8128843329
295 11 2 0.53 0.65320058002 14.953572783 22.7288005605
296 11 2 0.53 1.99931935204 15.8411184092 24.9504637673
297 11 2 0.53 1.32536783698 14.2118527493 24.8788148173
298 11 2 0.53 4.634438 14.157414 21.83985
299 11 2 0.53 3.078938 15.055414 21.83985
300 11 2 0.53 3.078938 13.259414 21.83985
301 11 2 0.53 2.63730191865 9.93532841542 21.83985
302 11 2 0.53 1.08180191865 10.8333284154 21.83985
303 11 2 0.53 1.08180191865 9.03732841542 21.83985
304 11 2 0.53 2.46926008135 17.4672575846 21.83985
305 11 2 0.53 0.91376008135 18.3652575846 21.83985
306 11 2 0.53 0.91376008135 16.5692575846 21.83985
307 12 2 0.53 4.0135434004 8.95056393198 24.0954339117
308 12 2 0.53 5.85645889001 8.67512878444 26.2318597708
309 12 2 0.53 4.10127064218 8.85645764071 26.2487378003
310 12 2 0.53 5.64947998622 4.78089346 24.2472144852
311 12 2 0.53 3.81224847889 4.20625520631 26.2417581257
312 12 2 0.53 5.50787763424 4.69437000398 26.2626511661
313 12 2 0.53 2.73726528183 7.26263344579 24.2683900787
314 12 2 0.53 3.32380704634 8.38253038902 26.3295595474
315 12 2 0.53 3.99748043541 6.75204486435 26.3686993739
316 12 2 0.53 6.94433 9.571268 23.2471
317 12 2 0.53 5.38883 10.469268 23.2471
318 12 2 0.53 5.38883 8.673268 23.2471
319 12 2 0.53 5.44406818315 1.5672615632 23.2471
320 12 2 0.53 3.88856818315 2.4652615632 23.2471
321 12 2 0.53 3.88856818315 0.6692615632 23.2471
322 12 2 0.53 3.98260181685 9.6414704368 23.2471
323 12 2 0.53 2.42710181685 10.5394704368 23.2471
324 12 2 0.53 2.42710181685 8.7434704368 23.2471


Bonds

1 1 2 3
2 1 2 8
3 1 3 9
4 1 5 6
5 1 8 9
6 1 10 11
7 1 11 12
8 1 11 17
9 1 12 18
10 1 14 15
11 1 17 18
12 1 20 21
13 1 20 26
14 1 21 27
15 1 23 24
16 1 26 27
17 1 29 30
18 1 29 35
19 1 30 36
20 1 32 33
21 1 35 36
22 1 37 38
23 1 38 39
24 1 38 44
25 1 39 45
26 1 41 42
27 1 44 45
28 1 47 48
29 1 47 53
30 1 48 54
31 1 50 51
32 1 53 54
33 1 56 57
34 1 56 62
35 1 57 63
36 1 59 60
37 1 62 63
38 1 64 65
39 1 65 66
40 1 65 71
41 1 66 72
42 1 68 69
43 1 71 72
44 1 74 75
45 1 74 80
46 1 75 81
47 1 77 78
48 1 80 81
49 1 83 84
50 1 83 89
51 1 84 90
52 1 86 87
53 1 89 90
54 1 91 92
55 1 92 93
56 1 92 98
57 1 93 99
58 1 95 96
59 1 98 99
60 1 101 102
61 1 101 107
62 1 102 108
63 1 104 105
64 1 107 108
65 2 217 10
66 2 217 11
67 2 217 12
68 2 218 1
69 2 219 2
70 2 219 3
71 2 220 13
72 2 220 14
73 2 220 15
74 2 221 4
75 2 222 5
76 2 222 6
77 2 223 16
78 2 223 17
79 2 223 18
80 2 224 7
81 2 225 8
82 2 225 9
83 2 226 28
84 2 226 29
85 2 226 30
86 2 227 19
87 2 227 29
88 2 228 20
89 2 228 21
90 2 229 31
91 2 229 32
92 2 229 33
93 2 230 22
94 2 231 23
95 2 231 24
96 2 232 34
97 2 232 35
98 2 232 36
99 2 233 25
100 2 234 26
101 2 234 27
102 2 235 46
103 2 235 47
104 2 235 48
105 2 236 37
106 2 236 48
107 2 237 38
108 2 237 39
109 2 238 49
110 2 238 50
111 2 238 51
112 2 239 40
113 2 240 41
114 2 240 42
115 2 241 52
116 2 241 53
117 2 241 54
118 2 242 43
119 2 243 44
120 2 243 45
121 2 244 64
122 2 244 65
123 2 244 66
124 2 245 55
125 2 246 56
126 2 246 57
127 2 247 67
128 2 247 68
129 2 247 69
130 2 248 58
131 2 249 59
132 2 249 60
133 2 250 70
134 2 250 71
135 2 250 72
136 2 251 61
137 2 252 62
138 2 252 63
139 2 253 82
140 2 253 83
141 2 253 84
142 2 254 73
143 2 254 83
144 2 255 74
145 2 255 75
146 2 256 85
147 2 256 86
148 2 256 87
149 2 257 76
150 2 258 77
151 2 258 78
152 2 259 88
153 2 259 89
154 2 259 90
155 2 260 79
156 2 261 80
157 2 261 81
158 2 262 100
159 2 262 101
160 2 262 102
161 2 263 91
162 2 263 102
163 2 264 92
164 2 264 93
165 2 265 103
166 2 265 104
167 2 265 105
168 2 266 94
169 2 267 95
170 2 267 96
171 2 268 106
172 2 268 107
173 2 268 108
174 2 269 97
175 2 270 98
176 2 270 99
177 2 271 118
178 2 271 119
179 2 271 120
180 2 272 109
181 2 273 110
182 2 273 111
183 2 274 121
184 2 274 122
185 2 274 123
186 2 275 112
187 2 276 113
188 2 276 114
189 2 277 124
190 2 277 125
191 2 277 126
192 2 278 115
193 2 279 116
194 2 279 117
195 2 280 136
196 2 280 137
197 2 280 138
198 2 281 127
199 2 281 137
200 2 282 128
201 2 282 129
202 2 283 139
203 2 283 140
204 2 283 141
205 2 284 130
206 2 285 131
207 2 285 132
208 2 286 142
209 2 286 143
210 2 286 144
211 2 287 133
212 2 288 134
213 2 288 135
214 2 289 154
215 2 289 155
216 2 289 156
217 2 290 145
218 2 290 156
219 2 291 146
220 2 291 147
221 2 292 157
222 2 292 158
223 2 292 159
224 2 293 148
225 2 294 149
226 2 294 150
227 2 295 160
228 2 295 161
229 2 295 162
230 2 296 151
231 2 297 152
232 2 297 153
233 2 298 172
234 2 298 173
235 2 298 174
236 2 299 163
237 2 300 164
238 2 300 165
239 2 301 175
240 2 301 176
241 2 301 177
242 2 302 166
243 2 303 167
244 2 303 168
245 2 304 178
246 2 304 179
247 2 304 180
248 2 305 169
249 2 306 170
250 2 306 171
251 2 307 190
252 2 307 191
253 2 307 192
254 2 308 181
255 2 308 191
256 2 309 182
257 2 309 183
258 2 310 193
259 2 310 194
260 2 310 195
261 2 311 184
262 2 312 185
263 2 312 186
264 2 313 196
265 2 313 197
266 2 313 198
267 2 314 187
268 2 315 188
269 2 315 189
270 2 316 208
271 2 316 209
272 2 316 210
273 2 317 199
274 2 317 210
275 2 318 200
276 2 318 201
277 2 319 211
278 2 319 212
279 2 319 213
280 2 320 202
281 2 321 203
282 2 321 204
283 2 322 214
284 2 322 215
285 2 322 216
286 2 323 205


Angles

1 1 3 2 8
2 1 2 3 9
3 1 2 8 9
4 1 3 9 8
5 1 10 11 12
6 1 10 11 17
7 1 12 11 17
8 1 11 12 18
9 1 11 17 18
10 1 12 18 17
11 1 21 20 26
12 1 20 21 27
13 1 20 26 27
14 1 21 27 26
15 1 30 29 35
16 1 29 30 36
17 1 29 35 36
18 1 30 36 35
19 1 37 38 39
20 1 37 38 44
21 1 39 38 44
22 1 38 39 45
23 1 38 44 45
24 1 39 45 44
25 1 48 47 53
26 1 47 48 54
27 1 47 53 54
28 1 48 54 53
29 1 57 56 62
30 1 56 57 63
31 1 56 62 63
32 1 57 63 62
33 1 64 65 66
34 1 64 65 71
35 1 66 65 71
36 1 65 66 72
37 1 65 71 72
38 1 66 72 71
39 1 75 74 80
40 1 74 75 81
41 1 74 80 81
42 1 75 81 80
43 1 84 83 89
44 1 83 84 90
45 1 83 89 90
46 1 84 90 89
47 1 91 92 93
48 1 91 92 98
49 1 93 92 98
50 1 92 93 99
51 1 92 98 99
52 1 93 99 98
53 1 102 101 107
54 1 101 102 108
55 1 101 107 108
56 1 102 108 107
57 1 10 109 11
58 1 10 109 12
59 1 11 109 12
60 1 2 111 3
61 1 13 112 14
62 1 13 112 15
63 1 14 112 15
64 1 5 114 6
65 1 16 115 17
66 1 16 115 18
67 1 17 115 18
68 1 8 117 9
69 1 28 118 29
70 1 28 118 30
71 1 29 118 30
72 1 19 119 29
73 1 20 120 21
74 1 31 121 32
75 1 31 121 33
76 1 32 121 33
77 1 23 123 24
78 1 34 124 35
79 1 34 124 36
80 1 35 124 36
81 1 26 126 27
82 1 46 127 47
83 1 46 127 48
84 1 47 127 48
85 1 37 128 48
86 1 38 129 39
87 1 49 130 50
88 1 49 130 51
89 1 50 130 51
90 1 41 132 42
91 1 52 133 53
92 1 52 133 54
93 1 53 133 54
94 1 44 135 45
95 1 64 136 65
96 1 64 136 66
97 1 65 136 66
98 1 56 138 57
99 1 67 139 68
100 1 67 139 69
101 1 68 139 69
102 1 59 141 60
103 1 70 142 71
104 1 70 142 72
105 1 71 142 72
106 1 62 144 63
107 1 82 145 83
108 1 82 145 84
109 2 83 145 84
110 2 73 146 83
111 2 74 147 75
112 2 85 148 86
113 2 85 148 87
114 2 86 148 87
115 2 77 150 78
116 2 88 151 89
117 2 88 151 90
118 2 89 151 90
119 2 80 153 81
120 2 100 154 101
121 2 100 154 102
122 2 101 154 102
123 2 91 155 102
124 2 92 156 93
125 2 103 157 104
126 2 103 157 105
127 2 104 157 105
128 2 95 159 96
129 2 106 160 107
130 2 106 160 108
131 2 107 160 108
132 2 98 162 99
133 2 118 163 119
134 2 118 163 120
135 2 119 163 120
136 2 110 165 111
137 2 121 166 122
138 2 121 166 123
139 2 122 166 123
140 2 113 168 114
141 2 124 169 125
142 2 124 169 126
143 2 125 169 126
144 2 116 171 117
145 2 136 172 137
146 2 136 172 138
147 2 137 172 138
148 2 127 173 137
149 2 128 174 129
150 2 139 175 140
151 2 139 175 141
152 2 140 175 141
153 2 131 177 132
154 2 142 178 143
155 2 142 178 144
156 2 143 178 144
157 2 134 180 135
158 2 154 181 155
159 2 154 181 156
160 2 155 181 156
161 2 145 182 156
162 2 146 183 147
163 2 157 184 158
164 2 157 184 159
165 2 158 184 159
166 2 149 186 150
167 2 160 187 161
168 2 160 187 162
169 2 161 187 162
170 2 152 189 153
171 2 172 190 173
172 2 172 190 174
173 2 173 190 174
174 2 164 192 165
175 2 175 193 176
176 2 175 193 177
177 2 176 193 177
178 2 167 195 168
179 2 178 196 179
180 2 178 196 180
181 2 179 196 180
182 2 170 198 171
183 2 190 199 191
184 2 190 199 192
185 2 191 199 192
186 2 181 200 191
187 2 182 201 183
188 2 193 202 194
189 2 193 202 195
190 2 194 202 195
191 2 185 204 186
192 2 196 205 197
193 2 196 205 198
194 2 197 205 198
195 2 188 207 189
196 2 208 208 209
197 2 208 208 210
198 2 209 208 210
199 2 199 209 210
200 2 200 210 201
201 2 211 211 212
202 2 211 211 213
203 2 212 211 213
204 2 203 213 204
205 2 214 214 215
206 2 214 214 216
207 2 215 214 216
208 2 206 216 207
