ITEM: TIMESTEP
0
ITEM: NUMBER OF ATOMS
216
ITEM: BOX BOUNDS xy xz yz pp pp pp
-7.3986809999999998e+00 7.1719499644999996e+00 0.0000000000000000e+00
-1.6563260794759998e+01 1.1064057999999999e+01 3.2951249644999998e+00
-2.8426993342800002e+00 1.6284213020399999e+01 -5.4992027947600004e+00
ITEM: ATOMS id mol type xu yu zu 
10 2 1 -0.482001 -4.7607 -1.8427 
11 2 1 -0.507195 -3.30818 -1.33601 
12 2 1 -0.676923 -3.32896 0.17236 
13 2 1 -2.04668 -1.22394 0.293352 
14 2 1 -0.759798 -1.92838 0.800571 
15 2 1 -0.692172 -1.77461 2.30964 
16 2 1 1.83982 -1.65617 2.43332 
17 2 1 0.578136 -2.40217 2.93879 
18 2 1 0.680238 -2.53724 4.44741 
19 3 1 -3.797 -5.6293 1.89913 
20 3 1 -3.8222 -7.08182 2.40582 
21 3 1 -3.99192 -7.06104 3.91419 
22 3 1 -5.36168 -9.16606 4.03519 
23 3 1 -4.0748 -8.46162 4.5424 
24 3 1 -4.00717 -8.61539 6.05148 
25 3 1 -1.47518 -8.73383 6.17515 
26 3 1 -2.73686 -7.98783 6.68062 
46 6 1 -0.482001 -4.7607 4.56816 
47 6 1 -0.507195 -3.30818 5.07484 
48 6 1 -0.676923 -3.32896 6.58322 
91 2 2 0.18384 -3.97287 -0.796888 
92 2 2 -1.58836 -3.89093 0.424287 
93 2 2 0.165097 -3.87577 0.621802 
94 2 2 -1.60415 -2.50142 1.21129 
96 2 2 -1.58303 -2.23758 2.75912 
99 2 2 -0.118787 -2.85902 5.13152 
100 2 2 -1.519 -4.7607 -1.4727 
101 2 2 0.036499 -5.6587 -1.4727 
102 2 2 0.036499 -3.8627 -1.4727 
103 2 2 -3.08368 -1.22394 -0.0766478 
104 2 2 -1.52818 -2.12194 -0.0766478 
106 2 2 2.87682 -1.65617 2.06332 
107 2 2 1.32132 -2.55417 2.06332 
109 3 2 -4.51323 -7.74652 1.8667 
110 3 2 -3.1499 -6.51423 4.36364 
111 3 2 -4.90336 -6.49907 4.16612 
112 3 2 -3.23044 -9.03466 4.13168 
113 3 2 -4.89803 -8.15242 6.50095 
114 3 2 -4.04477 -9.68474 6.30658 
115 3 2 -2.66928 -6.96819 6.27348 
118 3 2 -4.834 -5.6293 1.52913 
119 3 2 -3.2785 -6.5273 1.52913 
120 3 2 -3.2785 -4.7313 1.52913 
121 3 2 -6.39868 -9.16606 3.66519 
122 3 2 -4.84318 -10.0641 3.66519 
123 3 2 -4.84318 -8.26806 3.66519 
124 3 2 -2.51218 -8.73383 5.80515 
125 3 2 -0.956675 -9.63183 5.80515 
126 3 2 -0.956675 -7.83583 5.80515 
131 4 2 -4.04477 9.68474 3.10115 
143 4 2 -0.956675 9.63183 2.59972 
163 6 2 0.18384 -3.97287 5.61397 
172 6 2 -1.519 -4.7607 4.19816 
173 6 2 0.036499 -5.6587 4.19816 
174 6 2 0.036499 -3.8627 4.19816 
27 3 1 -2.63476 -7.85276 8.18924 
55 7 1 -3.797 -5.6293 8.30999 
56 7 1 -3.8222 -7.08182 8.81668 
57 7 1 -3.99192 -7.06104 10.325 
59 7 1 -4.0748 -8.46162 10.9533 
60 7 1 -4.00717 -8.61539 12.4623 
61 7 1 -1.47518 -8.73383 12.586 
62 7 1 -2.73686 -7.98783 13.0915 
63 7 1 -2.63476 -7.85276 14.6001 
67 8 1 -5.36168 9.16606 7.24061 
68 8 1 -4.0748 8.46162 7.74783 
69 8 1 -4.00717 8.61539 9.2569 
70 8 1 -1.47518 8.73383 9.38058 
71 8 1 -2.73686 7.98783 9.88605 
72 8 1 -2.63476 7.85276 11.3947 
116 3 2 -3.43379 -7.53098 8.87336 
117 3 2 -1.78507 -8.15749 8.81787 
164 6 2 -1.58836 -3.89093 6.83514 
165 6 2 0.165097 -3.87577 7.03266 
181 7 2 -4.51323 -7.74652 8.27755 
182 7 2 -3.1499 -6.51423 10.7745 
183 7 2 -4.90336 -6.49907 10.577 
184 7 2 -3.23044 -9.03466 10.5425 
186 7 2 -4.04477 -9.68474 12.7174 
187 7 2 -2.66928 -6.96819 12.6843 
188 7 2 -3.43379 -7.53098 15.2842 
189 7 2 -1.78507 -8.15749 15.2287 
190 7 2 -4.834 -5.6293 7.93999 
191 7 2 -3.2785 -6.5273 7.93999 
192 7 2 -3.2785 -4.7313 7.93999 
194 7 2 -4.84318 -10.0641 10.076 
195 7 2 -4.84318 -8.26806 10.076 
196 7 2 -2.51218 -8.73383 12.216 
197 7 2 -0.956675 -9.63183 12.216 
198 7 2 -0.956675 -7.83583 12.216 
203 8 2 -4.04477 9.68474 9.512 
204 8 2 -4.89803 8.15242 9.70638 
205 8 2 -2.80445 9.00748 10.2932 
206 8 2 -1.78507 8.15749 12.0233 
207 8 2 -3.43379 7.53098 12.0788 
212 8 2 -4.84318 10.0641 6.87061 
214 8 2 -2.51218 8.73383 9.01058 
215 8 2 -0.956675 9.63183 9.01058 
216 8 2 -0.956675 7.83583 9.01058 
58 7 1 -5.36168 -9.16606 10.446 
185 7 2 -4.89803 -8.15242 12.9118 
193 7 2 -6.39868 -9.16606 10.076 
211 8 2 -6.39868 9.16606 6.87061 
1 1 1 -0.482001 4.7607 1.36273 
2 1 1 -0.507195 3.30818 1.86942 
3 1 1 -0.676923 3.32896 3.37779 
4 1 1 -2.04668 1.22394 3.49878 
5 1 1 -0.759798 1.92838 4.006 
6 1 1 -0.692172 1.77461 5.51507 
7 1 1 1.83982 1.65617 5.63875 
8 1 1 0.578136 2.40217 6.14421 
28 4 1 -3.797 5.6293 -1.30629 
29 4 1 -3.8222 7.08182 -0.799607 
30 4 1 -3.99192 7.06104 0.708765 
31 4 1 -5.36168 9.16606 0.829757 
32 4 1 -4.0748 8.46162 1.33698 
33 4 1 -4.00717 8.61539 2.84605 
34 4 1 -1.47518 8.73383 2.96972 
35 4 1 -2.73686 7.98783 3.47519 
36 4 1 -2.63476 7.85276 4.98381 
49 6 1 -2.04668 -1.22394 6.70421 
64 8 1 -3.797 5.6293 5.10456 
65 8 1 -3.8222 7.08182 5.61125 
73 1 2 -1.19823 2.64348 1.33029 
74 1 2 0.165097 3.87577 3.82723 
75 1 2 -1.58836 3.89093 3.62972 
76 1 2 0.0845569 1.35534 3.59528 
77 1 2 -1.58303 2.23758 5.96455 
78 1 2 -0.729765 0.705261 5.77017 
79 1 2 0.645721 3.42181 5.73708 
82 1 2 -1.519 4.7607 0.992729 
83 1 2 0.036499 5.6587 0.992729 
84 1 2 0.036499 3.8627 0.992729 
85 1 2 -3.08368 1.22394 3.12878 
86 1 2 -1.52818 2.12194 3.12878 
87 1 2 -1.52818 0.325942 3.12878 
88 1 2 2.87682 1.65617 5.26875 
89 1 2 1.32132 2.55417 5.26875 
90 1 2 1.32132 0.758166 5.26875 
95 2 2 -0.729765 -0.705261 2.56474 
97 2 2 0.510551 -1.38252 3.34592 
98 2 2 1.52993 -2.23251 5.07603 
105 2 2 -1.52818 -0.325942 -0.0766478 
108 2 2 1.32132 -0.758166 2.06332 
127 4 2 -3.13116 6.41713 -0.260483 
128 4 2 -4.90336 6.49907 0.960692 
129 4 2 -3.1499 6.51423 1.15821 
130 4 2 -4.91915 7.88858 1.7477 
132 4 2 -4.89803 8.15242 3.29553 
133 4 2 -2.80445 9.00748 3.88233 
134 4 2 -1.78507 8.15749 5.61244 
135 4 2 -3.43379 7.53098 5.66793 
136 4 2 -4.834 5.6293 -0.936295 
137 4 2 -3.2785 6.5273 -0.936295 
138 4 2 -3.2785 4.7313 -0.936295 
139 4 2 -6.39868 9.16606 0.459757 
140 4 2 -4.84318 10.0641 0.459757 
141 4 2 -4.84318 8.26806 0.459757 
142 4 2 -2.51218 8.73383 2.59972 
144 4 2 -0.956675 7.83583 2.59972 
175 6 2 -3.08368 -1.22394 6.33421 
176 6 2 -1.52818 -2.12194 6.33421 
177 6 2 -1.52818 -0.325942 6.33421 
199 8 2 -3.13116 6.41713 6.15037 
208 8 2 -4.834 5.6293 4.73456 
209 8 2 -3.2785 6.5273 4.73456 
210 8 2 -3.2785 4.7313 4.73456 
9 1 1 0.680238 2.53724 7.65284 
37 5 1 -0.482001 4.7607 7.77359 
38 5 1 -0.507195 3.30818 8.28027 
39 5 1 -0.676923 3.32896 9.78864 
40 5 1 -2.04668 1.22394 9.90964 
41 5 1 -0.759798 1.92838 10.4169 
42 5 1 -0.692172 1.77461 11.9259 
43 5 1 1.83982 1.65617 12.0496 
44 5 1 0.578136 2.40217 12.5551 
45 5 1 0.680238 2.53724 14.0637 
50 6 1 -0.759798 -1.92838 7.21143 
51 6 1 -0.692172 -1.77461 8.7205 
52 6 1 1.83982 -1.65617 8.84418 
53 6 1 0.578136 -2.40217 9.34964 
54 6 1 0.680238 -2.53724 10.8583 
66 8 1 -3.99192 7.06104 7.11962 
80 1 2 -0.118787 2.85902 8.33695 
81 1 2 1.52993 2.23251 8.28146 
145 5 2 -1.19823 2.64348 7.74115 
146 5 2 0.165097 3.87577 10.2381 
147 5 2 -1.58836 3.89093 10.0406 
148 5 2 0.0845569 1.35534 10.0061 
149 5 2 -1.58303 2.23758 12.3754 
150 5 2 -0.729765 0.705261 12.181 
151 5 2 0.645721 3.42181 12.1479 
152 5 2 -0.118787 2.85902 14.7478 
153 5 2 1.52993 2.23251 14.6923 
154 5 2 -1.519 4.7607 7.40359 
155 5 2 0.036499 5.6587 7.40359 
156 5 2 0.036499 3.8627 7.40359 
157 5 2 -3.08368 1.22394 9.53964 
158 5 2 -1.52818 2.12194 9.53964 
159 5 2 -1.52818 0.325942 9.53964 
160 5 2 2.87683 1.65617 11.6796 
161 5 2 1.32132 2.55417 11.6796 
162 5 2 1.32132 0.758166 11.6796 
166 6 2 -1.60415 -2.50142 7.62215 
167 6 2 -0.729765 -0.705261 8.9756 
168 6 2 -1.58303 -2.23758 9.16998 
169 6 2 0.510551 -1.38252 9.75678 
170 6 2 1.52993 -2.23251 11.4869 
171 6 2 -0.118787 -2.85902 11.5424 
179 6 2 1.32132 -2.55417 8.47418 
180 6 2 1.32132 -0.758166 8.47418 
200 8 2 -4.90336 6.49907 7.37155 
201 8 2 -3.1499 6.51423 7.56906 
202 8 2 -4.91915 7.88858 8.15855 
213 8 2 -4.84318 8.26806 6.87061 
178 6 2 2.87682 -1.65617 8.47418 
ITEM: TIMESTEP
100
ITEM: NUMBER OF ATOMS
216
ITEM: BOX BOUNDS xy xz yz pp pp pp
-7.3986809999999998e+00 7.1719499644999996e+00 0.0000000000000000e+00
-1.6563260794759998e+01 1.1064057999999999e+01 3.2951249644999998e+00
-2.8426993342800002e+00 1.6284213020399999e+01 -5.4992027947600004e+00
ITEM: ATOMS id mol type xu yu zu 
10 2 1 -0.695436 -4.6665 -1.77849 
11 2 1 -0.110234 -3.97775 -0.593042 
12 2 1 -1.2636 -3.75605 0.750927 
13 2 1 -2.07782 -1.46673 0.356646 
14 2 1 -1.66182 -2.3848 1.39027 
102 2 2 0.28136 -4.65165 -2.28122 
16 2 1 1.75606 -1.3234 3.28127 
17 2 1 0.312711 -1.90187 3.51503 
18 2 1 0.323402 -2.70289 5.04183 
19 3 1 -3.3493 -4.87859 2.23159 
20 3 1 -3.21299 -6.44081 2.02764 
21 3 1 -3.56153 -7.07008 3.44165 
22 3 1 -5.33552 -9.40639 4.35459 
23 3 1 -4.11713 -8.5668 4.05701 
24 3 1 -4.00066 -8.61893 5.72733 
25 3 1 -1.71784 -8.53627 6.35689 
133 4 2 -2.6998 9.47978 3.8446 
46 6 1 -0.745346 -4.36657 3.73798 
47 6 1 -0.0817737 -4.24199 5.06715 
48 6 1 -0.8776 -3.89867 6.55342 
91 2 2 0.163511 -3.3046 -1.51284 
92 2 2 -2.3677 -3.89146 0.551804 
93 2 2 -0.503191 -4.43125 1.74479 
94 2 2 -2.74797 -2.48016 1.72788 
114 3 2 -3.41082 -9.52718 6.07783 
174 6 2 0.146966 -4.69665 3.17751 
100 2 2 -1.0669 -3.75251 -2.31023 
101 2 2 -1.37333 -5.48636 -1.34782 
140 4 2 -6.1921 9.83623 1.78568 
103 2 2 -2.66177 -2.42839 0.107637 
104 2 2 -0.7177 -1.26931 0.203918 
132 4 2 -3.73367 9.81741 2.73224 
107 2 2 2.46686 -2.20013 3.66505 
109 3 2 -4.21037 -6.21548 1.69895 
110 3 2 -2.42867 -6.62974 3.77794 
111 3 2 -4.38837 -6.56927 4.06613 
112 3 2 -3.77011 -9.55576 3.76784 
113 3 2 -5.34605 -8.56602 6.06235 
172 6 2 -0.825574 -3.4944 3.147 
99 2 2 -0.961009 -2.72845 4.83395 
118 3 2 -4.54418 -4.88259 2.12344 
119 3 2 -2.55726 -3.91316 2.1719 
120 3 2 -4.07021 -5.35608 3.12828 
121 3 2 -5.17698 -10.1306 3.49636 
122 3 2 -6.308 -8.96344 4.91386 
123 3 2 -4.5101 -10.2324 4.92559 
124 3 2 -1.09362 -7.66404 5.99686 
125 3 2 -1.96374 -9.55882 5.75214 
163 6 2 0.624247 -5.16923 4.73495 
173 6 2 -1.68107 -5.29917 4.07803 
165 6 2 0.352512 -3.67788 6.69459 
27 3 1 -2.68605 -7.81504 8.22712 
55 7 1 -3.23885 -5.07012 8.32886 
56 7 1 -3.23901 -6.5315 8.40028 
57 7 1 -3.36453 -6.85832 9.89213 
59 7 1 -3.92123 -8.37481 10.5518 
60 7 1 -4.04051 -8.56214 12.1199 
61 7 1 -1.7691 -8.59214 12.4848 
62 7 1 -2.91093 -7.92632 13.1458 
63 7 1 -2.52688 -8.05997 14.6394 
67 8 1 -5.44588 8.97716 7.34992 
68 8 1 -4.46758 8.06741 7.93562 
69 8 1 -3.35754 8.82651 8.77935 
70 8 1 -1.45699 7.65604 9.41875 
71 8 1 -2.82848 8.34178 10.0927 
72 8 1 -2.5804 7.57261 11.3981 
116 3 2 -3.77099 -8.11887 8.55547 
117 3 2 -1.49902 -8.00305 8.77914 
164 6 2 -1.29482 -4.66673 7.26128 
212 8 2 -5.24871 10.1181 7.02565 
181 7 2 -4.21704 -6.72037 8.08465 
182 7 2 -2.08087 -6.83541 9.72501 
183 7 2 -3.99726 -6.23581 10.5756 
184 7 2 -3.23597 -9.34914 10.4085 
186 7 2 -3.4885 -9.54903 12.4929 
187 7 2 -2.19226 -7.05147 13.2116 
188 7 2 -2.54725 -6.91002 14.6969 
189 7 2 -1.48164 -8.54458 14.9043 
190 7 2 -4.26492 -5.28092 7.8575 
191 7 2 -2.53266 -4.07876 7.85189 
192 7 2 -4.01905 -5.2945 9.2665 
194 7 2 -6.11173 -9.05386 10.8074 
195 7 2 -4.34018 -10.1147 11.0887 
196 7 2 -1.4041 -7.61695 12.0732 
197 7 2 -2.13851 -9.52882 11.8203 
198 7 2 -1.13939 -8.45527 13.4262 
203 8 2 -2.36135 8.69979 8.1776 
204 8 2 -3.82785 9.86619 9.27075 
205 8 2 -2.80499 9.39731 10.4051 
206 8 2 -2.01499 8.5214 11.6268 
207 8 2 -3.44623 7.13782 12.0072 
126 3 2 -1.14987 -8.28754 7.32054 
214 8 2 -1.02749 8.17288 8.56843 
215 8 2 -0.864285 7.5952 10.6294 
211 8 2 -6.2786 8.74545 7.98809 
58 7 1 -4.99442 -9.38036 10.456 
185 7 2 -5.46006 -8.57972 12.1337 
193 7 2 -4.49153 -9.64678 9.49215 
26 3 1 -2.92506 -7.8046 6.78746 
115 3 2 -2.15761 -6.94552 6.71685 
1 1 1 -1.17466 5.29461 1.80731 
2 1 1 -0.472347 3.92447 1.61596 
3 1 1 -1.09691 3.68757 3.02667 
4 1 1 -2.39924 1.42498 3.71285 
5 1 1 -1.12335 2.13484 3.8509 
6 1 1 -1.31163 1.97075 5.45576 
7 1 1 1.5365 1.53796 5.62145 
8 1 1 0.204209 2.19762 6.22076 
28 4 1 -3.8841 5.95584 -1.32738 
29 4 1 -2.88973 6.44891 -0.291922 
30 4 1 -4.33001 7.32218 0.319593 
31 4 1 -5.67555 8.99757 1.09916 
32 4 1 -4.51464 8.1319 1.64627 
33 4 1 -3.20439 8.70541 2.40564 
34 4 1 -1.22384 8.18101 3.48914 
35 4 1 -2.72397 8.33637 3.82371 
36 4 1 -2.61071 7.49524 5.13991 
49 6 1 -1.91408 -0.905138 6.46299 
64 8 1 -3.06134 5.28279 4.33519 
65 8 1 -2.8831 6.03217 5.71429 
73 1 2 -1.10377 3.90957 0.764306 
74 1 2 -0.138515 4.6054 3.2672 
75 1 2 -2.28419 3.75866 3.23023 
76 1 2 -0.667323 1.03255 3.57464 
77 1 2 -2.45153 2.79484 5.13975 
78 1 2 -1.39806 0.912773 5.79924 
79 1 2 0.87446 3.09649 6.15718 
82 1 2 -2.15799 4.54815 1.57469 
83 1 2 -1.07061 6.07058 2.86862 
84 1 2 -1.44917 5.39326 0.638277 
85 1 2 -1.91817 0.589732 4.35837 
86 1 2 -3.22364 2.27818 3.75282 
87 1 2 -2.00238 0.754208 2.91491 
88 1 2 2.12855 2.33893 6.19562 
89 1 2 1.82832 0.749541 4.68591 
90 1 2 1.67362 1.20387 6.61781 
95 2 2 0.414286 -1.44409 1.51873 
97 2 2 0.0484646 -0.734249 3.51994 
210 8 2 -2.16657 5.24877 3.70496 
105 2 2 -2.78749 -1.08482 1.11402 
108 2 2 1.44288 -0.828512 2.36616 
127 4 2 -2.64068 5.31812 -0.348677 
128 4 2 -5.08671 7.93186 -0.39346 
129 4 2 -4.60798 5.97028 0.511747 
130 4 2 -4.98336 7.11958 1.83919 
200 8 2 -4.59552 7.84895 5.97256 
131 4 2 -2.15634 8.51947 1.89168 
134 4 2 -1.8699 8.22092 5.85066 
135 4 2 -3.7329 7.31502 4.8791 
136 4 2 -4.16243 5.04348 -0.720825 
137 4 2 -4.60913 6.90991 -1.53031 
138 4 2 -3.12297 5.55204 -2.00524 
139 4 2 -6.07095 7.99909 0.820859 
209 8 2 -4.24031 5.2947 3.86288 
141 4 2 -5.38896 9.26106 0.102425 
208 8 2 -2.51013 4.31706 4.63937 
144 4 2 -1.20805 7.58906 2.56701 
143 4 2 -0.79162 8.02268 4.71586 
176 6 2 -1.75155 -1.23564 5.1563 
96 2 2 -1.56322 -0.622486 2.20611 
199 8 2 -2.10271 5.19874 5.93193 
15 2 1 -0.519982 -1.59739 2.18716 
106 2 2 1.55407 -0.347167 3.75208 
98 2 2 0.868851 -2.29746 6.10978 
142 4 2 -1.32748 9.16233 2.97426 
9 1 1 0.59252 2.25172 7.6993 
37 5 1 -0.849074 4.96263 8.10793 
38 5 1 -0.180685 3.62235 7.90849 
39 5 1 -0.695495 3.30865 9.31014 
40 5 1 -2.02866 1.2785 10.4047 
41 5 1 -0.680202 1.86205 10.2443 
42 5 1 -0.69019 2.02764 11.816 
43 5 1 1.44727 1.1959 12.3498 
44 5 1 0.594221 2.3527 12.762 
45 5 1 0.588924 2.15432 14.2532 
50 6 1 -1.56063 -2.44247 7.17461 
51 6 1 -0.312275 -1.48693 7.96448 
52 6 1 1.93955 -1.31667 8.53239 
53 6 1 0.661039 -1.78524 9.17854 
54 6 1 0.515437 -2.4082 10.603 
66 8 1 -3.84598 7.2387 6.69966 
80 1 2 -0.581825 1.95788 8.05762 
81 1 2 1.57376 1.22256 8.11861 
145 5 2 -1.00306 3.24348 7.32781 
146 5 2 -0.0751969 4.36648 9.67721 
147 5 2 -1.85965 3.14886 9.42457 
148 5 2 -0.348203 0.714439 10.116 
149 5 2 -1.88206 2.61416 11.7965 
150 5 2 -0.527506 1.02037 12.396 
151 5 2 1.62477 2.7995 12.8829 
152 5 2 1.17985 3.17252 14.3363 
153 5 2 0.964863 1.13901 14.711 
154 5 2 -1.82709 4.22364 8.17474 
155 5 2 -0.615251 6.12031 8.60334 
156 5 2 -1.15104 4.74559 7.01137 
157 5 2 -1.46811 0.491883 11.2092 
158 5 2 -2.68712 2.32215 10.4356 
159 5 2 -1.77199 0.427987 9.69753 
160 5 2 2.30359 1.81069 11.9828 
161 5 2 0.750153 0.260074 11.8023 
162 5 2 1.90047 1.1382 13.4183 
166 6 2 -2.50498 -2.58039 7.72058 
167 6 2 0.622529 -1.25295 7.12444 
168 6 2 -1.41264 -0.606746 8.25111 
169 6 2 0.527972 -0.6685 9.48627 
170 6 2 0.0577412 -1.39845 10.9833 
171 6 2 -0.086032 -3.37772 10.6344 
179 6 2 3.00648 -1.89653 8.3838 
180 6 2 1.36206 -0.443823 8.04796 
202 8 2 -5.39889 7.52476 8.24717 
201 8 2 -2.44033 7.26318 6.9895 
178 6 2 1.86415 -0.195403 8.83144 
216 8 2 -1.74457 7.11539 8.47007 
175 6 2 -2.74428 -0.93777 7.18897 
177 6 2 -1.66366 0.135884 6.95943 
213 8 2 -5.79285 8.09078 6.80205 
ITEM: TIMESTEP
200
ITEM: NUMBER OF ATOMS
216
ITEM: BOX BOUNDS xy xz yz pp pp pp
-7.3986809999999998e+00 7.1719499644999996e+00 0.0000000000000000e+00
-1.6563260794759998e+01 1.1064057999999999e+01 3.2951249644999998e+00
-2.8426993342800002e+00 1.6284213020399999e+01 -5.4992027947600004e+00
ITEM: ATOMS id mol type xu yu zu 
10 2 1 -1.25556 -3.56529 -1.17582 
11 2 1 -0.396703 -4.38143 -0.209605 
12 2 1 -1.64451 -4.07127 0.936721 
13 2 1 -1.2123 -1.52874 0.460771 
14 2 1 -1.74896 -2.62111 1.4148 
102 2 2 -0.683665 -3.76151 -2.05759 
26 3 1 -2.54318 -6.94766 6.39693 
115 3 2 -2.09738 -5.89022 6.37606 
18 2 1 0.310164 -3.17366 5.67906 
19 3 1 -3.52306 -4.68394 2.45994 
20 3 1 -2.63068 -5.95295 2.20285 
21 3 1 -3.32687 -6.78993 3.19165 
22 3 1 -5.06709 -8.73146 4.32018 
23 3 1 -3.80604 -8.15288 3.81036 
24 3 1 -3.50673 -7.93252 5.45001 
25 3 1 -1.29121 -7.41087 5.8121 
133 4 2 -2.90943 8.87769 4.5645 
46 6 1 -0.911975 -4.41507 4.12392 
47 6 1 -0.155011 -4.60193 5.62161 
48 6 1 -1.23799 -4.02676 6.89057 
91 2 2 0.262228 -3.59844 -0.831506 
92 2 2 -2.76578 -4.32477 0.664234 
93 2 2 -1.01315 -4.7184 1.93679 
94 2 2 -2.76936 -2.38137 1.0524 
114 3 2 -2.76782 -8.70336 5.83723 
174 6 2 -0.424108 -3.89447 3.17656 
100 2 2 -0.816814 -2.55046 -1.18073 
101 2 2 -2.38518 -4.05123 -0.819168 
173 6 2 -1.27755 -5.60865 4.09954 
103 2 2 -1.85831 -1.89013 -0.400587 
104 2 2 0.0355068 -1.64721 0.99268 
163 6 2 0.389024 -5.6688 5.97231 
15 2 1 -0.734572 -1.90247 2.71844 
109 3 2 -3.21903 -5.70351 1.28027 
110 3 2 -1.99444 -6.88021 3.53468 
111 3 2 -4.29184 -6.47502 3.77706 
112 3 2 -3.69254 -9.24688 3.57623 
113 3 2 -4.80082 -7.76993 5.89432 
172 6 2 -1.59828 -3.6322 4.00283 
99 2 2 -1.07277 -3.0217 5.43833 
118 3 2 -4.35781 -5.59975 2.19772 
119 3 2 -3.32278 -3.561 1.92197 
120 3 2 -4.10411 -5.07229 3.32507 
121 3 2 -5.14622 -9.60139 3.64046 
122 3 2 -5.90522 -8.08888 4.86679 
123 3 2 -4.26002 -9.56996 4.92571 
124 3 2 -0.844303 -6.38602 5.54679 
125 3 2 -1.51539 -8.34371 5.01401 
17 2 1 -0.207136 -2.30535 4.12403 
95 2 2 0.354886 -1.55162 2.48614 
164 6 2 -2.27985 -4.43031 6.93586 
212 8 2 -4.56715 10.1559 5.99098 
27 3 1 -2.217 -7.21832 7.82234 
55 7 1 -2.89584 -4.60913 8.759 
56 7 1 -2.77084 -6.04921 8.43832 
57 7 1 -2.74138 -6.55822 9.8401 
59 7 1 -3.62223 -7.89282 10.3693 
60 7 1 -3.85805 -8.16274 11.9173 
61 7 1 -1.67005 -8.62343 12.6705 
62 7 1 -2.8183 -7.82707 13.1808 
63 7 1 -2.83719 -8.29929 14.6309 
67 8 1 -4.90085 9.08397 6.5713 
165 6 2 -0.415941 -4.08539 7.72163 
69 8 1 -2.90982 8.21681 8.53256 
193 7 2 -4.21868 -8.96668 9.17394 
71 8 1 -2.77316 7.61113 9.94893 
72 8 1 -2.70419 6.94021 11.3506 
116 3 2 -3.28387 -7.59889 8.28373 
117 3 2 -1.07321 -7.57336 8.1824 
211 8 2 -5.79846 8.86044 7.13869 
58 7 1 -4.80718 -8.7604 10.1005 
181 7 2 -3.75126 -6.15037 8.11626 
182 7 2 -1.43888 -6.85137 9.52754 
183 7 2 -3.16619 -5.94637 10.7013 
184 7 2 -3.05681 -8.94175 10.207 
186 7 2 -3.5036 -9.23668 12.2341 
187 7 2 -2.01302 -7.1138 13.5645 
188 7 2 -2.59832 -7.24408 14.9744 
189 7 2 -2.13451 -9.15266 14.9757 
190 7 2 -3.83451 -5.15383 9.27445 
191 7 2 -2.77974 -3.52627 8.09333 
192 7 2 -2.78678 -4.70756 9.94999 
194 7 2 -5.89752 -8.30094 10.3593 
195 7 2 -4.28845 -9.58592 10.7696 
196 7 2 -0.996727 -7.74905 12.6786 
197 7 2 -2.05745 -9.27659 11.7167 
198 7 2 -1.34982 -8.97622 13.7057 
203 8 2 -1.88157 7.87652 8.08125 
204 8 2 -3.17954 9.36243 8.94762 
205 8 2 -2.61048 8.65923 10.2588 
206 8 2 -2.01967 7.76803 11.643 
207 8 2 -3.43459 6.24556 11.8826 
126 3 2 -0.577912 -7.01715 6.69797 
185 7 2 -5.2354 -7.92817 11.7709 
1 1 1 -0.901267 5.40092 1.84972 
2 1 1 -0.294206 4.07885 1.46737 
3 1 1 -1.22707 3.73254 2.72529 
4 1 1 -2.83382 1.38377 3.0118 
5 1 1 -1.72865 2.30002 3.39386 
6 1 1 -2.12875 2.08111 5.06795 
7 1 1 0.626186 1.61019 4.75926 
8 1 1 -0.51598 2.19751 5.71642 
28 4 1 -3.31725 6.91712 -1.5224 
29 4 1 -2.89102 6.55469 0.0146513 
30 4 1 -4.08495 7.55932 0.532076 
31 4 1 -5.30433 8.61284 2.0128 
32 4 1 -4.23326 7.4129 2.0552 
33 4 1 -2.89209 8.22027 2.85559 
34 4 1 -0.850724 7.98053 3.75297 
35 4 1 -2.29237 7.94437 4.28826 
36 4 1 -1.89794 6.64736 5.15668 
49 6 1 -1.65639 -0.723674 6.21109 
64 8 1 -3.2864 5.14321 3.8455 
65 8 1 -3.01674 5.52576 5.4345 
73 1 2 -0.760871 4.30235 0.527528 
74 1 2 -0.282019 4.45413 3.32966 
75 1 2 -2.36092 3.89527 2.67652 
76 1 2 -1.15509 1.34096 3.20302 
77 1 2 -3.32866 2.61143 4.42052 
78 1 2 -2.11406 1.01385 5.42831 
79 1 2 0.290365 3.04848 5.63531 
82 1 2 -1.9461 4.70901 1.33362 
83 1 2 -0.881483 5.89872 3.06936 
84 1 2 -1.38212 5.65238 0.811279 
85 1 2 -2.32954 0.665773 3.9117 
86 1 2 -3.956 1.72727 3.2397 
87 1 2 -2.30348 0.420217 2.94816 
88 1 2 1.20298 2.56397 4.62945 
89 1 2 0.501907 0.841948 3.93707 
90 1 2 1.21844 1.7612 5.7555 
142 4 2 -0.965246 8.91541 3.18605 
97 2 2 -1.38703 -2.26241 3.85734 
210 8 2 -2.35356 5.30081 3.34377 
66 8 1 -3.53684 7.04285 6.22044 
108 2 2 0.705236 -0.568 3.54259 
127 4 2 -2.95419 5.62994 0.651898 
128 4 2 -4.20823 8.71951 0.419234 
129 4 2 -4.6974 6.60288 -0.324944 
130 4 2 -4.24812 6.31823 1.56992 
200 8 2 -3.84352 7.85579 5.31564 
131 4 2 -1.9094 8.27286 2.22038 
134 4 2 -1.21887 7.08398 6.16058 
135 4 2 -2.89324 6.71214 4.55189 
136 4 2 -4.20458 6.51298 -2.08642 
137 4 2 -3.24079 8.13357 -1.18224 
138 4 2 -2.65172 6.41584 -2.18165 
139 4 2 -5.64298 8.58438 0.977326 
209 8 2 -4.36338 5.60704 3.0551 
141 4 2 -4.62339 9.39068 1.67659 
208 8 2 -3.05695 4.09196 3.9859 
144 4 2 -0.920412 7.38241 2.83596 
143 4 2 -0.298291 7.65531 4.95113 
176 6 2 -1.74692 -1.51314 5.11217 
96 2 2 -1.65282 -0.897365 2.46204 
199 8 2 -2.68698 4.37957 5.70151 
98 2 2 0.969606 -2.532 6.5037 
106 2 2 -0.134641 -0.235579 4.8452 
16 2 1 0.579641 -0.988499 4.51867 
213 8 2 -5.19016 8.16208 5.96585 
107 2 2 1.51523 -1.67085 5.27777 
105 2 2 -2.09467 -0.97724 0.804246 
140 4 2 -5.94353 8.67538 3.07008 
132 4 2 -3.69501 9.26186 2.94249 
177 6 2 -0.927737 0.178927 6.08044 
9 1 1 0.060583 1.98754 7.18518 
37 5 1 -0.96205 4.6205 7.81511 
38 5 1 -0.477451 3.28843 7.47776 
39 5 1 -0.731352 2.90456 8.98039 
40 5 1 -2.45642 1.69292 10.602 
41 5 1 -1.04202 1.55702 10.1098 
42 5 1 -0.721315 1.47876 11.8273 
43 5 1 0.821387 -0.0584369 13.0644 
44 5 1 0.323153 1.33197 13.2629 
45 5 1 -0.0768115 1.4439 14.8263 
50 6 1 -1.53549 -2.36128 7.24934 
51 6 1 -0.333134 -1.33529 7.72372 
52 6 1 1.30062 -0.137981 8.73966 
53 6 1 0.33098 -1.41755 9.04716 
54 6 1 1.17068 -1.9256 10.3006 
70 8 1 -1.37135 6.79416 9.51517 
80 1 2 -1.1149 1.56018 7.4256 
81 1 2 1.29288 1.35594 7.26881 
145 5 2 -1.45932 3.01852 7.1173 
146 5 2 0.243326 3.61423 9.05415 
147 5 2 -1.77814 3.22482 9.50039 
148 5 2 -1.43646 0.432836 9.92092 
149 5 2 -1.44852 2.56552 11.9658 
150 5 2 -1.09546 0.429893 12.2745 
151 5 2 1.35805 1.42024 13.7039 
152 5 2 0.666071 2.4258 14.6832 
153 5 2 -0.163992 0.696905 15.7446 
154 5 2 -1.99434 3.98855 8.14012 
155 5 2 -0.477699 5.76051 8.15068 
156 5 2 -1.70092 4.51427 6.86424 
157 5 2 -2.25332 0.665401 11.2602 
158 5 2 -2.55508 2.87685 10.7836 
159 5 2 -2.8955 0.882443 9.94538 
160 5 2 1.89474 0.29844 12.868 
161 5 2 0.10016 -0.588052 12.285 
162 5 2 0.944079 -0.0875448 14.2061 
166 6 2 -1.42962 -2.84178 8.32237 
167 6 2 0.762604 -1.15165 7.20485 
168 6 2 -1.44139 -0.533506 7.98355 
169 6 2 -0.725929 -1.00633 9.30117 
170 6 2 0.802147 -1.22697 11.0644 
171 6 2 1.62023 -2.92106 10.5796 
179 6 2 1.66965 -0.0468292 10.086 
180 6 2 1.71965 -0.087629 7.72523 
202 8 2 -4.98928 7.61098 7.42861 
201 8 2 -2.4236 6.35165 6.90956 
178 6 2 0.564328 0.316276 8.05525 
216 8 2 -1.77439 6.39377 8.5542 
175 6 2 -1.90246 0.316403 6.75404 
215 8 2 -0.933677 6.70813 10.7827 
68 8 1 -3.99624 8.10113 7.26799 
214 8 2 -0.73242 7.20634 8.72881 
ITEM: TIMESTEP
300
ITEM: NUMBER OF ATOMS
216
ITEM: BOX BOUNDS xy xz yz pp pp pp
-7.3986809999999998e+00 7.1719499644999996e+00 0.0000000000000000e+00
-1.6563260794759998e+01 1.1064057999999999e+01 3.2951249644999998e+00
-2.8426993342800002e+00 1.6284213020399999e+01 -5.4992027947600004e+00
ITEM: ATOMS id mol type xu yu zu 
10 2 1 -1.71255 -2.41396 -0.820772 
11 2 1 -0.740892 -3.75564 -0.492737 
12 2 1 -1.15335 -3.9727 1.17851 
13 2 1 -0.899301 -0.912674 0.787425 
14 2 1 -1.14649 -2.46084 1.68687 
102 2 2 -1.6453 -1.33746 -1.23218 
26 3 1 -2.68931 -6.78553 6.54221 
115 3 2 -2.4446 -5.65896 6.36147 
18 2 1 -0.0507726 -2.98167 5.90676 
19 3 1 -2.86965 -5.0502 3.0053 
20 3 1 -2.36692 -6.46848 2.35815 
21 3 1 -3.13795 -7.31856 3.52502 
22 3 1 -4.98212 -9.67208 4.93753 
23 3 1 -4.14657 -8.49024 4.38829 
24 3 1 -3.7992 -8.04179 5.93729 
25 3 1 -1.45153 -7.34009 5.97781 
212 8 2 -4.31186 10.059 5.40436 
46 6 1 -0.827973 -4.42793 4.28537 
47 6 1 -0.319401 -4.47397 5.86948 
97 2 2 -1.46378 -2.23275 3.76572 
91 2 2 0.0814602 -3.10635 -0.869771 
92 2 2 -2.28364 -4.35601 1.20779 
93 2 2 -0.389051 -4.54117 2.08508 
94 2 2 -2.23698 -2.54983 1.84496 
114 3 2 -2.83225 -8.68615 6.17087 
174 6 2 -0.157551 -3.90655 3.54634 
100 2 2 -0.746831 -1.83248 -0.763774 
101 2 2 -2.47458 -2.94922 0.311608 
173 6 2 -1.22395 -5.7103 4.31138 
103 2 2 -0.959865 -0.466447 -0.242773 
126 3 2 -0.520398 -6.79201 6.59237 
163 6 2 0.217726 -5.47611 6.11156 
15 2 1 -0.383647 -1.76728 3.00648 
109 3 2 -2.92121 -5.83461 1.61791 
110 3 2 -1.87358 -7.45579 3.91252 
111 3 2 -3.93395 -6.71908 4.14391 
112 3 2 -3.62163 -9.51323 4.20819 
113 3 2 -5.1298 -8.32553 6.27559 
172 6 2 -1.55541 -3.71003 3.9693 
99 2 2 -1.40237 -3.01533 5.51663 
118 3 2 -3.92159 -5.73094 2.83607 
119 3 2 -2.46198 -3.80557 2.7121 
120 3 2 -3.04149 -5.51659 4.04804 
121 3 2 -4.45464 -10.6417 4.7682 
122 3 2 -5.97935 -9.47471 5.60477 
123 3 2 -3.95792 -9.90236 5.66035 
124 3 2 -1.06912 -6.27398 5.80381 
125 3 2 -1.60871 -8.31435 5.2057 
17 2 1 -0.341888 -2.19974 4.39814 
105 2 2 -1.82812 -0.603863 0.17569 
67 8 1 -4.70342 8.75466 5.6195 
27 3 1 -2.01758 -6.8915 7.86095 
55 7 1 -2.84865 -4.50627 9.05272 
56 7 1 -2.57827 -5.89026 8.65627 
57 7 1 -2.21885 -6.48045 9.9766 
59 7 1 -3.14458 -7.7574 10.3915 
60 7 1 -3.7265 -7.77206 11.8049 
61 7 1 -1.91212 -8.80883 12.8921 
62 7 1 -2.81008 -7.6537 13.1261 
63 7 1 -3.37926 -7.99402 14.4653 
206 8 2 -3.36437 7.27486 11.2041 
165 6 2 -0.377454 -3.627 7.76361 
69 8 1 -3.31215 8.358 7.86763 
193 7 2 -3.77353 -8.67816 9.07075 
71 8 1 -3.31996 7.91083 9.2951 
185 7 2 -4.89461 -7.11048 11.3408 
116 3 2 -2.83724 -7.48717 8.41048 
117 3 2 -0.754169 -7.14408 8.0788 
205 8 2 -3.36613 8.99694 9.55357 
58 7 1 -4.43893 -8.28357 9.90373 
181 7 2 -3.59659 -6.15217 8.49155 
182 7 2 -0.974502 -6.67842 9.51552 
183 7 2 -2.62075 -5.97768 10.9202 
184 7 2 -2.85696 -8.92941 10.3579 
186 7 2 -3.79203 -8.8658 12.2667 
187 7 2 -1.93137 -7.19923 13.699 
188 7 2 -2.93864 -7.02376 14.8713 
189 7 2 -3.05407 -8.96586 14.97 
190 7 2 -3.61357 -5.23428 9.70922 
191 7 2 -2.95414 -3.46462 8.34588 
192 7 2 -2.46759 -4.65721 10.1638 
194 7 2 -5.3671 -7.51471 9.89361 
195 7 2 -4.32516 -9.1455 10.6594 
196 7 2 -1.04915 -8.13107 12.9139 
197 7 2 -2.36628 -9.39399 11.926 
198 7 2 -1.88594 -9.06628 14.0069 
204 8 2 -3.4146 9.58031 8.1083 
48 6 1 -1.4021 -3.817 7.11075 
164 6 2 -2.43568 -4.25478 7.13822 
1 1 1 -0.0550148 5.73777 1.23537 
2 1 1 0.143285 4.31718 0.811455 
3 1 1 -0.794377 3.93345 2.12966 
4 1 1 -1.83175 1.08021 1.92803 
5 1 1 -1.4198 2.33282 2.74951 
6 1 1 -2.06202 1.98174 4.38554 
7 1 1 0.57726 2.11233 5.10654 
8 1 1 -0.828932 2.46559 5.66511 
28 4 1 -3.53323 7.41557 -1.46209 
29 4 1 -2.70623 7.01972 -0.189351 
30 4 1 -3.94356 7.55754 0.80822 
31 4 1 -4.83896 8.55074 2.55406 
32 4 1 -4.11122 7.20979 2.31093 
33 4 1 -2.61736 7.40118 3.32749 
34 4 1 -0.193723 7.26662 4.02976 
35 4 1 -1.64845 6.91637 4.49883 
36 4 1 -1.38961 5.63392 5.42119 
49 6 1 -2.04795 -0.642014 5.95066 
64 8 1 -2.87918 5.0186 3.67717 
65 8 1 -2.8918 5.1265 5.39925 
73 1 2 -0.444772 4.55977 -0.0470505 
74 1 2 0.13877 4.6301 2.73798 
75 1 2 -1.86758 4.32 2.07547 
76 1 2 -0.64389 1.66574 3.26353 
77 1 2 -2.88958 2.7523 3.82566 
78 1 2 -2.36568 0.953738 4.77608 
79 1 2 -0.189707 3.41096 5.84449 
82 1 2 -1.34378 5.31638 0.936079 
83 1 2 0.511858 6.06246 2.31156 
84 1 2 -0.704785 6.04538 0.275652 
85 1 2 -1.94643 0.622656 3.03968 
86 1 2 -1.82985 0.759241 0.687913 
87 1 2 -0.986066 0.524287 2.49539 
88 1 2 0.699105 3.16331 4.71245 
89 1 2 0.776349 1.10926 4.52329 
90 1 2 1.0428 2.50797 6.07131 
142 4 2 -0.74536 8.17789 3.7468 
177 6 2 -1.34886 0.334401 5.71577 
210 8 2 -2.01563 5.4487 3.12179 
66 8 1 -3.44488 6.67549 5.97665 
108 2 2 0.890031 -0.304959 4.1365 
127 4 2 -2.15303 6.08323 -0.207453 
128 4 2 -4.11057 8.75874 0.820651 
129 4 2 -4.60085 6.6457 -0.0762549 
130 4 2 -4.67248 6.31368 1.95921 
200 8 2 -3.10846 7.63574 5.47939 
131 4 2 -1.63506 7.28124 2.75925 
134 4 2 -0.680326 5.83262 6.38144 
135 4 2 -1.04115 5.1202 4.27577 
136 4 2 -4.23438 6.64985 -1.80907 
137 4 2 -3.74792 8.54701 -0.905895 
138 4 2 -2.82874 7.27608 -2.25701 
139 4 2 -5.37657 8.61678 1.60994 
209 8 2 -4.15445 5.39484 3.13308 
141 4 2 -4.02624 9.25584 2.25555 
208 8 2 -2.39524 4.09898 3.41962 
144 4 2 -0.146343 7.1833 2.94762 
143 4 2 0.240823 6.70831 5.22417 
176 6 2 -2.05876 -1.60858 5.08503 
96 2 2 -1.36154 -0.865059 3.04126 
199 8 2 -3.04119 4.01216 5.85865 
211 8 2 -5.69298 8.29987 5.40188 
106 2 2 0.115391 0.02035 5.54392 
16 2 1 0.579924 -0.843809 5.02376 
213 8 2 -4.54728 7.91464 4.93587 
107 2 2 1.37977 -1.73559 5.67013 
175 6 2 -2.37487 0.410907 6.23441 
140 4 2 -5.43289 8.41743 3.81215 
132 4 2 -3.1995 8.65119 3.47936 
133 4 2 -1.89927 8.00728 4.71166 
104 2 2 0.0824478 -0.515124 1.65614 
95 2 2 0.607729 -1.21493 2.95311 
202 8 2 -5.21228 7.27862 6.47283 
9 1 1 -0.451197 2.08502 7.10003 
37 5 1 -1.51217 4.51323 8.02685 
38 5 1 -1.22368 3.1659 7.56784 
39 5 1 -1.1092 2.64714 9.03819 
40 5 1 -2.67153 1.19379 10.6796 
41 5 1 -1.30275 1.25192 10.0864 
42 5 1 -0.800466 1.03288 11.7523 
43 5 1 0.783276 -0.206921 13.3969 
44 5 1 0.0536637 1.06832 13.2587 
45 5 1 -0.263358 1.60334 14.766 
50 6 1 -1.96177 -2.11644 7.26941 
51 6 1 -0.707053 -0.984243 7.59485 
52 6 1 0.696983 0.153225 8.88506 
53 6 1 -0.205794 -1.30562 8.99977 
54 6 1 1.25024 -1.60986 9.91168 
70 8 1 -2.02599 6.90432 9.22286 
80 1 2 -1.53665 1.51261 6.96811 
81 1 2 0.80846 1.67699 7.44794 
145 5 2 -2.17327 2.80911 7.47894 
146 5 2 -0.0885326 3.30087 8.83344 
147 5 2 -1.97043 2.99288 9.85742 
148 5 2 -1.66712 0.123618 9.92642 
149 5 2 -1.68494 2.01701 12.0499 
150 5 2 -0.925816 -0.0828604 12.0744 
151 5 2 1.00213 1.50018 13.7241 
152 5 2 0.126371 2.63739 14.2564 
153 5 2 -0.219594 1.02281 15.801 
154 5 2 -2.4068 3.88948 8.59703 
155 5 2 -0.953708 5.69741 8.02876 
156 5 2 -2.51232 4.27867 7.24242 
157 5 2 -2.31857 0.121944 11.316 
158 5 2 -2.85289 2.36811 10.9507 
159 5 2 -3.13317 0.460714 9.9884 
160 5 2 1.78949 0.256169 13.653 