ITEM: TIMESTEP
0
ITEM: NUMBER OF ATOMS
864
ITEM: BOX BOUNDS xy xz yz pp pp pp
-7.3986809999999998e+00 1.3801949964499999e+01 0.0000000000000000e+00
-1.6563260794759998e+01 3.1844058000000000e+01 3.2951249644999998e+00
-3.9155087723799999e+00 1.6284213020399999e+01 -5.4992027947600004e+00
ITEM: ATOMS id mol type xu yu zu 
10 2 1 -0.482001 -4.7607 -1.8427 
11 2 1 -0.507195 -3.30818 -1.33601 
12 2 1 -0.676923 -3.32896 0.17236 
14 2 1 -0.759798 -1.92838 0.800571 
17 2 1 0.578136 -2.40217 2.93879 
19 3 1 -3.797 -5.6293 1.89913 
20 3 1 -3.82219 -7.08182 2.40582 
21 3 1 -3.99192 -7.06104 3.91419 
22 3 1 -5.36168 -9.16606 4.03519 
23 3 1 -4.0748 -8.46162 4.5424 
24 3 1 -4.00717 -8.61539 6.05148 
25 3 1 -1.47518 -8.73383 6.17515 
26 3 1 -2.73686 -7.98783 6.68062 
27 3 1 -2.63476 -7.85276 8.18924 
46 6 1 6.148 -4.7607 -2.91551 
47 6 1 6.1228 -3.30818 -2.40882 
48 6 1 5.95308 -3.32896 -0.900449 
49 6 1 4.58332 -1.22394 -0.779457 
50 6 1 5.8702 -1.92838 -0.272238 
51 6 1 5.93783 -1.77461 1.23683 
53 6 1 7.20814 -2.40217 1.86598 
54 6 1 7.31024 -2.53724 3.3746 
55 7 1 2.833 -5.6293 0.826324 
56 7 1 2.80781 -7.08182 1.33301 
57 7 1 2.63808 -7.06104 2.84138 
58 7 1 1.26832 -9.16606 2.96238 
59 7 1 2.5552 -8.46162 3.46959 
60 7 1 2.62283 -8.61539 4.97867 
61 7 1 5.15483 -8.73383 5.10234 
62 7 1 3.89314 -7.98783 5.60781 
63 7 1 3.99524 -7.85276 7.11643 
154 18 1 -0.482001 -4.7607 4.56816 
155 18 1 -0.507195 -3.30818 5.07484 
156 18 1 -0.676923 -3.32896 6.58322 
163 19 1 -3.797 -5.6293 8.30999 
164 19 1 -3.8222 -7.08182 8.81668 
165 19 1 -3.99192 -7.06104 10.325 
166 19 1 -5.36168 -9.16606 10.446 
167 19 1 -4.0748 -8.46162 10.9533 
168 19 1 -4.00717 -8.61539 12.4623 
169 19 1 -1.47518 -8.73383 12.586 
170 19 1 -2.73686 -7.98783 13.0915 
171 19 1 -2.63476 -7.85276 14.6001 
190 22 1 6.148 -4.7607 3.49535 
191 22 1 6.1228 -3.30818 4.00204 
192 22 1 5.95308 -3.32896 5.51041 
199 23 1 2.833 -5.6293 7.23718 
200 23 1 2.80781 -7.08182 7.74387 
201 23 1 2.63808 -7.06104 9.25224 
202 23 1 1.26832 -9.16606 9.37323 
203 23 1 2.5552 -8.46162 9.88045 
204 23 1 2.62283 -8.61539 11.3895 
205 23 1 5.15482 -8.73383 11.5132 
206 23 1 3.89314 -7.98783 12.0187 
207 23 1 3.99524 -7.85276 13.5273 
247 28 1 -5.36168 29.9461 7.24061 
248 28 1 -4.0748 29.2416 7.74783 
249 28 1 -4.00717 29.3954 9.2569 
250 28 1 -1.47518 29.5138 9.38058 
251 28 1 -2.73686 28.7678 9.88605 
252 28 1 -2.63476 28.6328 11.3947 
283 32 1 1.26832 29.9461 6.1678 
284 32 1 2.5552 29.2416 6.67502 
285 32 1 2.62283 29.3954 8.18409 
286 32 1 5.15482 29.5138 8.30777 
287 32 1 3.89314 28.7678 8.81324 
288 32 1 3.99524 28.6328 10.3219 
307 2 2 0.18384 -3.97287 -0.796888 
308 2 2 -1.58836 -3.89093 0.424287 
309 2 2 0.165097 -3.87577 0.621802 
310 2 2 -1.60415 -2.50142 1.21129 
312 2 2 -1.58303 -2.23758 2.75912 
315 2 2 -0.118787 -2.85902 5.13152 
316 2 2 -1.519 -4.7607 -1.4727 
317 2 2 0.036499 -5.6587 -1.4727 
318 2 2 0.036499 -3.8627 -1.4727 
320 2 2 -1.52818 -2.12194 -0.0766478 
323 2 2 1.32132 -2.55417 2.06332 
325 3 2 -4.51323 -7.74652 1.8667 
326 3 2 -3.1499 -6.51423 4.36364 
327 3 2 -4.90336 -6.49907 4.16612 
328 3 2 -3.23044 -9.03466 4.13168 
329 3 2 -4.89803 -8.15242 6.50095 
330 3 2 -4.04477 -9.68474 6.30658 
331 3 2 -2.66928 -6.96819 6.27348 
332 3 2 -3.43379 -7.53098 8.87336 
333 3 2 -1.78507 -8.15749 8.81787 
334 3 2 -4.834 -5.6293 1.52913 
335 3 2 -3.2785 -6.5273 1.52913 
336 3 2 -3.2785 -4.7313 1.52913 
337 3 2 -6.39868 -9.16606 3.66519 
338 3 2 -4.84318 -10.0641 3.66519 
339 3 2 -4.84318 -8.26806 3.66519 
340 3 2 -2.51218 -8.73383 5.80515 
341 3 2 -0.956675 -9.63183 5.80515 
342 3 2 -0.956675 -7.83583 5.80515 
379 6 2 6.81384 -3.97287 -1.8697 
380 6 2 5.04164 -3.89093 -0.648522 
381 6 2 6.7951 -3.87577 -0.451007 
382 6 2 5.02585 -2.50142 0.138482 
384 6 2 5.04697 -2.23758 1.68631 
387 6 2 6.51121 -2.85902 4.05871 
388 6 2 7.185 -4.7607 -2.54551 
389 6 2 5.6295 -5.6587 -2.54551 
390 6 2 5.6295 -3.8627 -2.54551 
392 6 2 4.06482 -2.12194 -0.409457 
395 6 2 7.95133 -2.55417 0.990511 
397 7 2 2.11677 -7.74652 0.793888 
398 7 2 3.4801 -6.51423 3.29083 
399 7 2 1.72664 -6.49907 3.09331 
400 7 2 3.39956 -9.03466 3.05888 
401 7 2 1.73197 -8.15242 5.42814 
402 7 2 2.58523 -9.68474 5.23377 
403 7 2 3.96072 -6.96819 5.20067 
404 7 2 3.19621 -7.53098 7.80055 
405 7 2 4.84493 -8.15749 7.74506 
406 7 2 3.87 -5.6293 0.456324 
407 7 2 2.3145 -6.5273 0.456324 
408 7 2 2.3145 -4.7313 0.456324 
409 7 2 2.30532 -9.16606 2.59238 
410 7 2 0.749819 -10.0641 2.59238 
411 7 2 0.749819 -8.26806 2.59238 
412 7 2 6.19183 -8.73383 4.73234 
413 7 2 4.63632 -9.63183 4.73234 
414 7 2 4.63632 -7.83583 4.73234 
491 12 2 -4.04477 30.4647 3.10115 
493 12 2 -2.80445 29.7875 3.88233 
500 12 2 -4.84318 30.8441 0.459757 
503 12 2 -0.956675 30.4118 2.59972 
563 16 2 2.58523 30.4647 2.02834 
575 16 2 4.63632 30.4118 1.52692 
595 18 2 0.18384 -3.97287 5.61397 
596 18 2 -1.58836 -3.89093 6.83514 
597 18 2 0.165097 -3.87577 7.03266 
604 18 2 -1.519 -4.7607 4.19816 
605 18 2 0.036499 -5.6587 4.19816 
606 18 2 0.036499 -3.8627 4.19816 
613 19 2 -4.51323 -7.74652 8.27755 
614 19 2 -3.1499 -6.51423 10.7745 
615 19 2 -4.90336 -6.49907 10.577 
616 19 2 -3.23044 -9.03466 10.5425 
617 19 2 -4.89803 -8.15242 12.9118 
618 19 2 -4.04477 -9.68474 12.7174 
619 19 2 -2.66928 -6.96819 12.6843 
620 19 2 -3.43379 -7.53098 15.2842 
621 19 2 -1.78507 -8.15749 15.2287 
622 19 2 -4.834 -5.6293 7.93999 
623 19 2 -3.2785 -6.5273 7.93999 
624 19 2 -3.2785 -4.7313 7.93999 
625 19 2 -6.39868 -9.16606 10.076 
626 19 2 -4.84318 -10.0641 10.076 
627 19 2 -4.84318 -8.26806 10.076 
628 19 2 -2.51218 -8.73383 12.216 
629 19 2 -0.956675 -9.63183 12.216 
630 19 2 -0.956675 -7.83583 12.216 
667 22 2 6.81384 -3.97287 4.54116 
668 22 2 5.04164 -3.89093 5.76233 
669 22 2 6.7951 -3.87577 5.95985 
676 22 2 7.185 -4.7607 3.12535 
677 22 2 5.6295 -5.6587 3.12535 
678 22 2 5.6295 -3.8627 3.12535 
685 23 2 2.11677 -7.74652 7.20474 
686 23 2 3.4801 -6.51423 9.70168 
687 23 2 1.72664 -6.49907 9.50417 
688 23 2 3.39956 -9.03466 9.46973 
689 23 2 1.73197 -8.15242 11.839 
690 23 2 2.58523 -9.68474 11.6446 
691 23 2 3.96072 -6.96819 11.6115 
692 23 2 3.19621 -7.53098 14.2114 
693 23 2 4.84493 -8.15749 14.1559 
694 23 2 3.87 -5.6293 6.86718 
695 23 2 2.3145 -6.5273 6.86718 
696 23 2 2.3145 -4.7313 6.86718 
697 23 2 2.30532 -9.16606 9.00323 
698 23 2 0.749819 -10.0641 9.00323 
699 23 2 0.749819 -8.26806 9.00323 
700 23 2 6.19182 -8.73383 11.1432 
701 23 2 4.63632 -9.63183 11.1432 
702 23 2 4.63632 -7.83583 11.1432 
778 28 2 -4.91915 28.6686 8.15855 
779 28 2 -4.04477 30.4647 9.512 
780 28 2 -4.89803 28.9324 9.70638 
781 28 2 -2.80445 29.7875 10.2932 
782 28 2 -1.78507 28.9375 12.0233 
783 28 2 -3.43379 28.311 12.0788 
787 28 2 -6.39868 29.9461 6.87061 
788 28 2 -4.84318 30.8441 6.87061 
789 28 2 -4.84318 29.0481 6.87061 
790 28 2 -2.51218 29.5138 9.01058 
791 28 2 -0.956675 30.4118 9.01058 
792 28 2 -0.956675 28.6158 9.01058 
851 32 2 2.58523 30.4647 8.43919 
852 32 2 1.73197 28.9324 8.63357 
853 32 2 3.82555 29.7875 9.22037 
854 32 2 4.84493 28.9375 10.9505 
855 32 2 3.19621 28.311 11.006 
859 32 2 2.30532 29.9461 5.7978 
860 32 2 0.749819 30.8441 5.7978 
862 32 2 6.19182 29.5138 7.93777 
863 32 2 4.63632 30.4118 7.93777 
1 1 1 -0.482001 4.7607 1.36273 
2 1 1 -0.507195 3.30818 1.86942 
3 1 1 -0.676923 3.32896 3.37779 
4 1 1 -2.04668 1.22394 3.49878 
5 1 1 -0.759798 1.92838 4.006 
6 1 1 -0.692172 1.77461 5.51507 
7 1 1 1.83982 1.65617 5.63875 
8 1 1 0.578136 2.40217 6.14421 
9 1 1 0.680238 2.53724 7.65284 
13 2 1 -2.04668 -1.22394 0.293352 
15 2 1 -0.692172 -1.77461 2.30964 
16 2 1 1.83982 -1.65617 2.43332 
18 2 1 0.680238 -2.53724 4.44741 
28 4 1 -3.797 5.6293 -1.30629 
29 4 1 -3.82219 7.08182 -0.799607 
30 4 1 -3.99192 7.06104 0.708765 
32 4 1 -4.0748 8.46162 1.33698 
35 4 1 -2.73686 7.98783 3.47519 
36 4 1 -2.63476 7.85276 4.98381 
37 5 1 6.148 4.7607 0.289919 
38 5 1 6.12281 3.30818 0.796607 
39 5 1 5.95308 3.32896 2.30498 
40 5 1 4.58332 1.22394 2.42597 
41 5 1 5.8702 1.92838 2.93319 
42 5 1 5.93783 1.77461 4.44226 
43 5 1 8.46983 1.65617 4.56594 
44 5 1 7.20814 2.40217 5.0714 
45 5 1 7.31024 2.53724 6.58003 
52 6 1 8.46982 -1.65617 1.36051 
64 8 1 2.833 5.6293 -2.3791 
65 8 1 2.8078 7.08182 -1.87242 
66 8 1 2.63808 7.06104 -0.364044 
67 8 1 1.26832 9.16606 -0.243052 
68 8 1 2.5552 8.46162 0.264167 
69 8 1 2.62283 8.61539 1.77324 
70 8 1 5.15483 8.73383 1.89692 
71 8 1 3.89314 7.98783 2.40238 
72 8 1 3.99524 7.85276 3.911 
145 17 1 -0.482001 4.7607 7.77359 
146 17 1 -0.507195 3.30818 8.28027 
147 17 1 -0.676923 3.32896 9.78864 
148 17 1 -2.04668 1.22394 9.90964 
149 17 1 -0.759798 1.92838 10.4169 
150 17 1 -0.692172 1.77461 11.9259 
151 17 1 1.83982 1.65617 12.0496 
152 17 1 0.578136 2.40217 12.5551 
153 17 1 0.680238 2.53724 14.0637 
157 18 1 -2.04668 -1.22394 6.70421 
158 18 1 -0.759798 -1.92838 7.21143 
159 18 1 -0.692172 -1.77461 8.7205 
160 18 1 1.83983 -1.65617 8.84418 
161 18 1 0.578136 -2.40217 9.34964 
162 18 1 0.680238 -2.53724 10.8583 
172 20 1 -3.797 5.6293 5.10456 
173 20 1 -3.8222 7.08182 5.61125 
174 20 1 -3.99192 7.06104 7.11962 
181 21 1 6.148 4.7607 6.70078 
182 21 1 6.1228 3.30818 7.20746 
183 21 1 5.95308 3.32896 8.71584 
184 21 1 4.58332 1.22394 8.83683 
185 21 1 5.8702 1.92838 9.34405 
186 21 1 5.93783 1.77461 10.8531 
187 21 1 8.46982 1.65617 10.9768 
188 21 1 7.20814 2.40217 11.4823 
189 21 1 7.31024 2.53724 12.9909 
193 22 1 4.58332 -1.22394 5.6314 
194 22 1 5.8702 -1.92838 6.13862 
195 22 1 5.93783 -1.77461 7.64769 
196 22 1 8.46982 -1.65617 7.77137 
197 22 1 7.20814 -2.40217 8.27683 
198 22 1 7.31024 -2.53724 9.78545 
208 24 1 2.833 5.6293 4.03175 
209 24 1 2.80781 7.08182 4.53844 
210 24 1 2.63808 7.06104 6.04681 
289 1 2 -1.19823 2.64348 1.33029 
290 1 2 0.165097 3.87577 3.82723 
291 1 2 -1.58836 3.89093 3.62972 
292 1 2 0.0845569 1.35534 3.59528 
293 1 2 -1.58303 2.23758 5.96455 
294 1 2 -0.729765 0.705261 5.77017 
295 1 2 0.645721 3.42181 5.73708 
296 1 2 -0.118787 2.85902 8.33695 
297 1 2 1.52993 2.23251 8.28146 
298 1 2 -1.519 4.7607 0.992729 
299 1 2 0.036499 5.6587 0.992729 
300 1 2 0.036499 3.8627 0.992729 
301 1 2 -3.08368 1.22394 3.12878 
302 1 2 -1.52818 2.12194 3.12878 
303 1 2 -1.52818 0.325942 3.12878 
304 1 2 2.87683 1.65617 5.26875 
305 1 2 1.32132 2.55417 5.26875 
306 1 2 1.32132 0.758166 5.26875 
311 2 2 -0.729765 -0.705261 2.56474 
313 2 2 0.510551 -1.38252 3.34592 
314 2 2 1.52993 -2.23251 5.07603 
319 2 2 -3.08368 -1.22394 -0.0766478 
321 2 2 -1.52818 -0.325942 -0.0766478 
322 2 2 2.87683 -1.65617 2.06332 
324 2 2 1.32132 -0.758166 2.06332 
343 4 2 -3.13116 6.41713 -0.260483 
344 4 2 -4.90336 6.49907 0.960692 
345 4 2 -3.1499 6.51423 1.15821 
346 4 2 -4.91915 7.88858 1.7477 
348 4 2 -4.89803 8.15242 3.29553 
351 4 2 -3.43379 7.53098 5.66793 
352 4 2 -4.834 5.6293 -0.936295 
353 4 2 -3.2785 6.5273 -0.936295 
354 4 2 -3.2785 4.7313 -0.936295 
355 4 2 -6.39868 9.16606 0.459757 
357 4 2 -4.84318 8.26806 0.459757 
360 4 2 -0.956675 7.83583 2.59972 
361 5 2 5.43177 2.64348 0.257484 
362 5 2 6.7951 3.87577 2.75442 
363 5 2 5.04164 3.89093 2.55691 
364 5 2 6.71456 1.35534 2.52247 
365 5 2 5.04697 2.23758 4.89174 
366 5 2 5.90023 0.705261 4.69736 
367 5 2 7.27572 3.42181 4.66427 
368 5 2 6.51121 2.85902 7.26414 
369 5 2 8.15993 2.23251 7.20865 
370 5 2 7.185 4.7607 -0.0800806 
371 5 2 5.6295 5.6587 -0.0800806 
372 5 2 5.6295 3.8627 -0.0800806 
373 5 2 5.62032 1.22394 2.05597 
374 5 2 4.06482 2.12194 2.05597 
375 5 2 4.06482 0.325942 2.05597 
376 5 2 9.50682 1.65617 4.19594 
377 5 2 7.95132 2.55417 4.19594 
378 5 2 7.95132 0.758166 4.19594 
383 6 2 5.90023 -0.705261 1.49193 
385 6 2 7.14055 -1.38252 2.27311 
386 6 2 8.15993 -2.23251 4.00322 
391 6 2 5.62032 -1.22394 -0.409457 
393 6 2 4.06482 -0.325942 -0.409457 
394 6 2 9.50682 -1.65617 0.990511 
396 6 2 7.95133 -0.758166 0.990511 
415 8 2 3.49884 6.41713 -1.33329 
416 8 2 1.72664 6.49907 -0.112117 
417 8 2 3.4801 6.51423 0.0853975 
418 8 2 1.71085 7.88858 0.674887 
420 8 2 1.73197 8.15242 2.22272 
423 8 2 3.19621 7.53098 4.59512 
424 8 2 3.87 5.6293 -2.0091 
425 8 2 2.3145 6.5273 -2.0091 
426 8 2 2.3145 4.7313 -2.0091 
427 8 2 2.30532 9.16606 -0.613052 
429 8 2 0.749819 8.26806 -0.613052 
430 8 2 6.19183 8.73383 1.52692 
432 8 2 4.63632 7.83583 1.52692 
577 17 2 -1.19823 2.64348 7.74115 
578 17 2 0.165097 3.87577 10.2381 
579 17 2 -1.58836 3.89093 10.0406 
580 17 2 0.0845569 1.35534 10.0061 
581 17 2 -1.58303 2.23758 12.3754 
582 17 2 -0.729765 0.705261 12.181 
583 17 2 0.645721 3.42181 12.1479 
584 17 2 -0.118787 2.85902 14.7478 
585 17 2 1.52993 2.23251 14.6923 
586 17 2 -1.519 4.7607 7.40359 
587 17 2 0.036499 5.6587 7.40359 
588 17 2 0.036499 3.8627 7.40359 
589 17 2 -3.08368 1.22394 9.53964 
590 17 2 -1.52818 2.12194 9.53964 
591 17 2 -1.52818 0.325942 9.53964 
592 17 2 2.87683 1.65617 11.6796 
593 17 2 1.32132 2.55417 11.6796 
594 17 2 1.32132 0.758166 11.6796 
598 18 2 -1.60415 -2.50142 7.62215 
599 18 2 -0.729765 -0.705261 8.9756 
600 18 2 -1.58303 -2.23758 9.16998 
601 18 2 0.510551 -1.38252 9.75678 
602 18 2 1.52993 -2.23251 11.4869 
603 18 2 -0.118787 -2.85902 11.5424 
607 18 2 -3.08368 -1.22394 6.33421 
608 18 2 -1.52818 -2.12194 6.33421 
609 18 2 -1.52818 -0.325942 6.33421 
610 18 2 2.87683 -1.65617 8.47418 
611 18 2 1.32132 -2.55417 8.47418 
612 18 2 1.32132 -0.758166 8.47418 
631 20 2 -3.13116 6.41713 6.15037 
632 20 2 -4.90336 6.49907 7.37155 
633 20 2 -3.1499 6.51423 7.56906 
640 20 2 -4.834 5.6293 4.73456 
641 20 2 -3.2785 6.5273 4.73456 
642 20 2 -3.2785 4.7313 4.73456 
649 21 2 5.43177 2.64348 6.66834 
650 21 2 6.7951 3.87577 9.16528 
651 21 2 5.04164 3.89093 8.96776 
652 21 2 6.71456 1.35534 8.93333 
653 21 2 5.04697 2.23758 11.3026 
654 21 2 5.90023 0.705261 11.1082 
655 21 2 7.27572 3.42181 11.0751 
656 21 2 6.51121 2.85902 13.675 
657 21 2 8.15993 2.23251 13.6195 
658 21 2 7.185 4.7607 6.33078 
659 21 2 5.6295 5.6587 6.33078 
660 21 2 5.6295 3.8627 6.33078 
661 21 2 5.62032 1.22394 8.46683 
662 21 2 4.06482 2.12194 8.46683 
663 21 2 4.06482 0.325942 8.46683 
664 21 2 9.50682 1.65617 10.6068 
665 21 2 7.95132 2.55417 10.6068 
666 21 2 7.95132 0.758166 10.6068 
670 22 2 5.02585 -2.50142 6.54934 
671 22 2 5.90023 -0.705261 7.90279 
672 22 2 5.04697 -2.23758 8.09717 
673 22 2 7.14055 -1.38252 8.68397 
674 22 2 8.15993 -2.23251 10.4141 
675 22 2 6.51121 -2.85902 10.4696 
679 22 2 5.62032 -1.22394 5.2614 
680 22 2 4.06482 -2.12194 5.2614 
681 22 2 4.06482 -0.325942 5.2614 
682 22 2 9.50682 -1.65617 7.40137 
683 22 2 7.95132 -2.55417 7.40137 
684 22 2 7.95132 -0.758166 7.40137 
703 24 2 3.49884 6.41713 5.07756 
704 24 2 1.72664 6.49907 6.29874 
705 24 2 3.4801 6.51423 6.49625 
712 24 2 3.87 5.6293 3.66175 
713 24 2 2.3145 6.5273 3.66175 
714 24 2 2.3145 4.7313 3.66175 
31 4 1 -5.36168 9.16606 0.829757 
33 4 1 -4.00717 8.61539 2.84605 
34 4 1 -1.47518 8.73383 2.96972 
82 10 1 -0.482001 16.0193 -1.8427 
83 10 1 -0.507195 17.4718 -1.33601 
84 10 1 -0.676923 17.451 0.17236 
85 10 1 -2.04668 19.5561 0.293352 
86 10 1 -0.759798 18.8516 0.800571 
87 10 1 -0.692172 19.0054 2.30964 
88 10 1 1.83982 19.1238 2.43332 
89 10 1 0.578136 18.3778 2.93879 
90 10 1 0.680238 18.2428 4.44741 
91 11 1 -3.797 15.1507 1.89913 
92 11 1 -3.82219 13.6982 2.40582 
93 11 1 -3.99192 13.719 3.91419 
94 11 1 -5.36168 11.6139 4.03519 
95 11 1 -4.0748 12.3184 4.5424 
96 11 1 -4.00717 12.1646 6.05148 
97 11 1 -1.47518 12.0462 6.17515 
98 11 1 -2.73686 12.7922 6.68062 
99 11 1 -2.63476 12.9272 8.18924 
118 14 1 6.148 16.0193 -2.91551 
119 14 1 6.1228 17.4718 -2.40882 
120 14 1 5.95308 17.451 -0.900449 
121 14 1 4.58332 19.5561 -0.779457 
122 14 1 5.8702 18.8516 -0.272238 
123 14 1 5.93783 19.0054 1.23683 
124 14 1 8.46982 19.1238 1.36051 
125 14 1 7.20814 18.3778 1.86598 
126 14 1 7.31024 18.2428 3.3746 
127 15 1 2.833 15.1507 0.826324 
128 15 1 2.80781 13.6982 1.33301 
129 15 1 2.63808 13.719 2.84138 
130 15 1 1.26832 11.6139 2.96238 
131 15 1 2.5552 12.3184 3.46959 
132 15 1 2.62283 12.1646 4.97867 
133 15 1 5.15483 12.0462 5.10234 
134 15 1 3.89314 12.7922 5.60781 
135 15 1 3.99524 12.9272 7.11643 
175 20 1 -5.36168 9.16606 7.24061 
176 20 1 -4.0748 8.46162 7.74783 
177 20 1 -4.00717 8.61539 9.2569 
178 20 1 -1.47518 8.73383 9.38058 
179 20 1 -2.73686 7.98783 9.88605 
180 20 1 -2.63476 7.85276 11.3947 
211 24 1 1.26832 9.16606 6.1678 
212 24 1 2.5552 8.46162 6.67502 
213 24 1 2.62283 8.61539 8.18409 
214 24 1 5.15482 8.73383 8.30777 
215 24 1 3.89314 7.98783 8.81324 
216 24 1 3.99524 7.85276 10.3219 
226 26 1 -0.482001 16.0193 4.56816 
227 26 1 -0.507195 17.4718 5.07484 
228 26 1 -0.676923 17.451 6.58322 
235 27 1 -3.797 15.1507 8.30999 
236 27 1 -3.8222 13.6982 8.81668 
237 27 1 -3.99192 13.719 10.325 
238 27 1 -5.36168 11.6139 10.446 
239 27 1 -4.0748 12.3184 10.9533 
240 27 1 -4.00717 12.1646 12.4623 
241 27 1 -1.47518 12.0462 12.586 
242 27 1 -2.73686 12.7922 13.0915 
243 27 1 -2.63476 12.9272 14.6001 
262 30 1 6.148 16.0193 3.49535 
263 30 1 6.1228 17.4718 4.00204 
264 30 1 5.95308 17.451 5.51041 
271 31 1 2.833 15.1507 7.23718 
272 31 1 2.80781 13.6982 7.74387 
273 31 1 2.63808 13.719 9.25224 
274 31 1 1.26832 11.6139 9.37323 
275 31 1 2.5552 12.3184 9.88045 
276 31 1 2.62283 12.1646 11.3895 
277 31 1 5.15482 12.0462 11.5132 
278 31 1 3.89314 12.7922 12.0187 
279 31 1 3.99524 12.9272 13.5273 
347 4 2 -4.04477 9.68474 3.10115 
349 4 2 -2.80445 9.00748 3.88233 
350 4 2 -1.78507 8.15749 5.61244 
356 4 2 -4.84318 10.0641 0.459757 
358 4 2 -2.51218 8.73383 2.59972 
359 4 2 -0.956675 9.63183 2.59972 
419 8 2 2.58523 9.68474 2.02834 
421 8 2 3.82555 9.00748 2.80952 
422 8 2 4.84493 8.15749 4.53963 
428 8 2 0.749819 10.0641 -0.613052 
431 8 2 4.63632 9.63183 1.52692 
451 10 2 0.18384 16.8071 -0.796888 
452 10 2 -1.58836 16.8891 0.424287 
453 10 2 0.165097 16.9042 0.621802 
454 10 2 -1.60415 18.2786 1.21129 
456 10 2 -1.58303 18.5424 2.75912 
458 10 2 1.52993 18.5475 5.07603 
459 10 2 -0.118787 17.921 5.13152 
460 10 2 -1.519 16.0193 -1.4727 
461 10 2 0.036499 16.9173 -1.4727 
462 10 2 0.036499 15.1213 -1.4727 
463 10 2 -3.08368 19.5561 -0.0766478 
465 10 2 -1.52818 18.6581 -0.0766478 
466 10 2 2.87683 19.1238 2.06332 
468 10 2 1.32132 18.2258 2.06332 
469 11 2 -4.51323 13.0335 1.8667 
470 11 2 -3.1499 14.2658 4.36364 
471 11 2 -4.90336 14.2809 4.16612 
472 11 2 -3.23044 11.7453 4.13168 
473 11 2 -4.89803 12.6276 6.50095 
474 11 2 -4.04477 11.0953 6.30658 
475 11 2 -2.66928 13.8118 6.27348 
476 11 2 -3.43379 13.249 8.87336 
477 11 2 -1.78507 12.6225 8.81787 
478 11 2 -4.834 15.1507 1.52913 
479 11 2 -3.2785 16.0487 1.52913 
480 11 2 -3.2785 14.2527 1.52913 
481 11 2 -6.39868 11.6139 3.66519 
482 11 2 -4.84318 12.5119 3.66519 
483 11 2 -4.84318 10.7159 3.66519 
484 11 2 -2.51218 12.0462 5.80515 
485 11 2 -0.956675 12.9442 5.80515 
486 11 2 -0.956675 11.1482 5.80515 
523 14 2 6.81384 16.8071 -1.8697 
524 14 2 5.04164 16.8891 -0.648522 
525 14 2 6.7951 16.9042 -0.451007 
526 14 2 5.02585 18.2786 0.138482 
528 14 2 5.04697 18.5424 1.68631 
529 14 2 7.14055 19.3975 2.27311 
530 14 2 8.15993 18.5475 4.00322 
531 14 2 6.51121 17.921 4.05871 
532 14 2 7.185 16.0193 -2.54551 
533 14 2 5.6295 16.9173 -2.54551 
534 14 2 5.6295 15.1213 -2.54551 
535 14 2 5.62032 19.5561 -0.409457 
537 14 2 4.06482 18.6581 -0.409457 
538 14 2 9.50682 19.1238 0.990511 
540 14 2 7.95133 18.2258 0.990511 
541 15 2 2.11677 13.0335 0.793888 
542 15 2 3.4801 14.2658 3.29083 
543 15 2 1.72664 14.2809 3.09331 
544 15 2 3.39956 11.7453 3.05888 
545 15 2 1.73197 12.6276 5.42814 
546 15 2 2.58523 11.0953 5.23377 
547 15 2 3.96072 13.8118 5.20067 
548 15 2 3.19621 13.249 7.80055 
549 15 2 4.84493 12.6225 7.74506 
550 15 2 3.87 15.1507 0.456324 
551 15 2 2.3145 16.0487 0.456324 
552 15 2 2.3145 14.2527 0.456324 
553 15 2 2.30532 11.6139 2.59238 
554 15 2 0.749819 12.5119 2.59238 
555 15 2 0.749819 10.7159 2.59238 
556 15 2 6.19183 12.0462 4.73234 
557 15 2 4.63632 12.9442 4.73234 
558 15 2 4.63632 11.1482 4.73234 
634 20 2 -4.91915 7.88858 8.15855 
635 20 2 -4.04477 9.68474 9.512 
636 20 2 -4.89803 8.15242 9.70638 
637 20 2 -2.80445 9.00748 10.2932 
638 20 2 -1.78507 8.15749 12.0233 
639 20 2 -3.43379 7.53098 12.0788 
643 20 2 -6.39868 9.16606 6.87061 
644 20 2 -4.84318 10.0641 6.87061 
645 20 2 -4.84318 8.26806 6.87061 
646 20 2 -2.51218 8.73383 9.01058 
647 20 2 -0.956675 9.63183 9.01058 
648 20 2 -0.956675 7.83583 9.01058 
706 24 2 1.71085 7.88858 7.08574 
707 24 2 2.58523 9.68474 8.43919 
708 24 2 1.73197 8.15242 8.63357 
709 24 2 3.82555 9.00748 9.22037 
710 24 2 4.84493 8.15749 10.9505 
711 24 2 3.19621 7.53098 11.006 
715 24 2 2.30532 9.16606 5.7978 
716 24 2 0.749819 10.0641 5.7978 
717 24 2 0.749819 8.26806 5.7978 
718 24 2 6.19182 8.73383 7.93777 
719 24 2 4.63632 9.63183 7.93777 
720 24 2 4.63632 7.83583 7.93777 
739 26 2 0.18384 16.8071 5.61397 
740 26 2 -1.58836 16.8891 6.83514 
741 26 2 0.165097 16.9042 7.03266 
748 26 2 -1.519 16.0193 4.19816 
749 26 2 0.036499 16.9173 4.19816 
750 26 2 0.036499 15.1213 4.19816 
757 27 2 -4.51323 13.0335 8.27755 
758 27 2 -3.1499 14.2658 10.7745 
759 27 2 -4.90336 14.2809 10.577 
760 27 2 -3.23044 11.7453 10.5425 
761 27 2 -4.89803 12.6276 12.9118 
762 27 2 -4.04477 11.0953 12.7174 
763 27 2 -2.66928 13.8118 12.6843 
764 27 2 -3.43379 13.249 15.2842 
765 27 2 -1.78507 12.6225 15.2287 
766 27 2 -4.834 15.1507 7.93999 
767 27 2 -3.2785 16.0487 7.93999 
768 27 2 -3.2785 14.2527 7.93999 
769 27 2 -6.39868 11.6139 10.076 
770 27 2 -4.84318 12.5119 10.076 
771 27 2 -4.84318 10.7159 10.076 
772 27 2 -2.51218 12.0462 12.216 
773 27 2 -0.956675 12.9442 12.216 
774 27 2 -0.956675 11.1482 12.216 
811 30 2 6.81384 16.8071 4.54116 
812 30 2 5.04164 16.8891 5.76233 
813 30 2 6.7951 16.9042 5.95985 
820 30 2 7.185 16.0193 3.12535 
821 30 2 5.6295 16.9173 3.12535 
822 30 2 5.6295 15.1213 3.12535 
829 31 2 2.11677 13.0335 7.20474 
830 31 2 3.4801 14.2658 9.70168 
831 31 2 1.72664 14.2809 9.50417 
832 31 2 3.39956 11.7453 9.46973 
833 31 2 1.73197 12.6276 11.839 
834 31 2 2.58523 11.0953 11.6446 
835 31 2 3.96072 13.8118 11.6115 
836 31 2 3.19621 13.249 14.2114 
837 31 2 4.84493 12.6225 14.1559 
838 31 2 3.87 15.1507 6.86718 
839 31 2 2.3145 16.0487 6.86718 
840 31 2 2.3145 14.2527 6.86718 
841 31 2 2.30532 11.6139 9.00323 
842 31 2 0.749819 12.5119 9.00323 
843 31 2 0.749819 10.7159 9.00323 
844 31 2 6.19182 12.0462 11.1432 
845 31 2 4.63632 12.9442 11.1432 
846 31 2 4.63632 11.1482 11.1432 
73 9 1 -0.482001 25.5407 1.36273 
74 9 1 -0.507195 24.0882 1.86942 
75 9 1 -0.676923 24.109 3.37779 
76 9 1 -2.04668 22.0039 3.49878 
77 9 1 -0.759798 22.7084 4.006 
78 9 1 -0.692172 22.5546 5.51507 
79 9 1 1.83982 22.4362 5.63875 
80 9 1 0.578136 23.1822 6.14421 
81 9 1 0.680238 23.3172 7.65284 
100 12 1 -3.797 26.4093 -1.30629 
101 12 1 -3.82219 27.8618 -0.799607 
102 12 1 -3.99192 27.841 0.708765 
103 12 1 -5.36168 29.9461 0.829757 
104 12 1 -4.0748 29.2416 1.33698 
105 12 1 -4.00717 29.3954 2.84605 
106 12 1 -1.47518 29.5138 2.96972 
107 12 1 -2.73686 28.7678 3.47519 
108 12 1 -2.63476 28.6328 4.98381 
109 13 1 6.148 25.5407 0.289919 
110 13 1 6.12281 24.0882 0.796607 
111 13 1 5.95308 24.109 2.30498 
112 13 1 4.58332 22.0039 2.42597 
113 13 1 5.8702 22.7084 2.93319 
114 13 1 5.93783 22.5546 4.44226 
115 13 1 8.46983 22.4362 4.56594 
116 13 1 7.20814 23.1822 5.0714 
117 13 1 7.31024 23.3172 6.58003 
136 16 1 2.833 26.4093 -2.3791 
137 16 1 2.8078 27.8618 -1.87242 
138 16 1 2.63808 27.841 -0.364044 
139 16 1 1.26832 29.9461 -0.243052 
140 16 1 2.5552 29.2416 0.264167 
141 16 1 2.62283 29.3954 1.77324 
142 16 1 5.15483 29.5138 1.89692 
143 16 1 3.89314 28.7678 2.40238 
144 16 1 3.99524 28.6328 3.911 
217 25 1 -0.482001 25.5407 7.77359 
218 25 1 -0.507195 24.0882 8.28027 
219 25 1 -0.676923 24.109 9.78864 
220 25 1 -2.04668 22.0039 9.90964 
221 25 1 -0.759798 22.7084 10.4169 
222 25 1 -0.692172 22.5546 11.9259 
223 25 1 1.83982 22.4362 12.0496 
224 25 1 0.578136 23.1822 12.5551 
225 25 1 0.680238 23.3172 14.0637 
229 26 1 -2.04668 19.5561 6.70421 
230 26 1 -0.759798 18.8516 7.21143 
231 26 1 -0.692172 19.0054 8.7205 
232 26 1 1.83983 19.1238 8.84418 
233 26 1 0.578136 18.3778 9.34964 
234 26 1 0.680238 18.2428 10.8583 
244 28 1 -3.797 26.4093 5.10456 
245 28 1 -3.8222 27.8618 5.61125 
246 28 1 -3.99192 27.841 7.11962 
253 29 1 6.148 25.5407 6.70078 
254 29 1 6.1228 24.0882 7.20746 
255 29 1 5.95308 24.109 8.71584 
256 29 1 4.58332 22.0039 8.83683 
257 29 1 5.8702 22.7084 9.34405 
258 29 1 5.93783 22.5546 10.8531 
259 29 1 8.46982 22.4362 10.9768 
260 29 1 7.20814 23.1822 11.4823 
261 29 1 7.31024 23.3172 12.9909 
265 30 1 4.58332 19.5561 5.6314 
266 30 1 5.8702 18.8516 6.13862 
267 30 1 5.93783 19.0054 7.64769 
268 30 1 8.46982 19.1238 7.77137 
269 30 1 7.20814 18.3778 8.27683 
270 30 1 7.31024 18.2428 9.78545 
280 32 1 2.833 26.4093 4.03175 
281 32 1 2.80781 27.8618 4.53844 
282 32 1 2.63808 27.841 6.04681 
433 9 2 -1.19823 23.4235 1.33029 
434 9 2 0.165097 24.6558 3.82723 
435 9 2 -1.58836 24.6709 3.62972 
436 9 2 0.0845569 22.1353 3.59528 
437 9 2 -1.58303 23.0176 5.96455 
438 9 2 -0.729765 21.4853 5.77017 
439 9 2 0.645721 24.2018 5.73708 
440 9 2 -0.118787 23.639 8.33695 
441 9 2 1.52993 23.0125 8.28146 
442 9 2 -1.519 25.5407 0.992729 
443 9 2 0.036499 26.4387 0.992729 
444 9 2 0.036499 24.6427 0.992729 
445 9 2 -3.08368 22.0039 3.12878 
446 9 2 -1.52818 22.9019 3.12878 
447 9 2 -1.52818 21.1059 3.12878 
448 9 2 2.87683 22.4362 5.26875 
449 9 2 1.32132 23.3342 5.26875 
450 9 2 1.32132 21.5382 5.26875 
455 10 2 -0.729765 20.0747 2.56474 
457 10 2 0.510551 19.3975 3.34592 
464 10 2 -1.52818 20.4541 -0.0766478 
467 10 2 1.32132 20.0218 2.06332 
487 12 2 -3.13116 27.1971 -0.260483 
488 12 2 -4.90336 27.2791 0.960692 
489 12 2 -3.1499 27.2942 1.15821 
490 12 2 -4.91915 28.6686 1.7477 
492 12 2 -4.89803 28.9324 3.29553 
494 12 2 -1.78507 28.9375 5.61244 
495 12 2 -3.43379 28.311 5.66793 
496 12 2 -4.834 26.4093 -0.936295 
497 12 2 -3.2785 27.3073 -0.936295 
498 12 2 -3.2785 25.5113 -0.936295 
499 12 2 -6.39868 29.9461 0.459757 
501 12 2 -4.84318 29.0481 0.459757 
502 12 2 -2.51218 29.5138 2.59972 
504 12 2 -0.956675 28.6158 2.59972 
505 13 2 5.43177 23.4235 0.257484 
506 13 2 6.7951 24.6558 2.75442 
507 13 2 5.04164 24.6709 2.55691 
508 13 2 6.71456 22.1353 2.52247 
509 13 2 5.04697 23.0176 4.89174 
510 13 2 5.90023 21.4853 4.69736 
511 13 2 7.27572 24.2018 4.66427 
512 13 2 6.51121 23.639 7.26414 
513 13 2 8.15993 23.0125 7.20865 
514 13 2 7.185 25.5407 -0.0800806 
515 13 2 5.6295 26.4387 -0.0800806 
516 13 2 5.6295 24.6427 -0.0800806 
517 13 2 5.62032 22.0039 2.05597 
518 13 2 4.06482 22.9019 2.05597 
519 13 2 4.06482 21.1059 2.05597 
520 13 2 9.50682 22.4362 4.19594 
521 13 2 7.95132 23.3342 4.19594 
522 13 2 7.95132 21.5382 4.19594 
527 14 2 5.90023 20.0747 1.49193 
536 14 2 4.06482 20.4541 -0.409457 
539 14 2 7.95133 20.0218 0.990511 
559 16 2 3.49884 27.1971 -1.33329 
560 16 2 1.72664 27.2791 -0.112117 
561 16 2 3.4801 27.2942 0.0853975 
562 16 2 1.71085 28.6686 0.674887 
564 16 2 1.73197 28.9324 2.22272 
565 16 2 3.82555 29.7875 2.80952 
566 16 2 4.84493 28.9375 4.53963 
567 16 2 3.19621 28.311 4.59512 
568 16 2 3.87 26.4093 -2.0091 
569 16 2 2.3145 27.3073 -2.0091 
570 16 2 2.3145 25.5113 -2.0091 
571 16 2 2.30532 29.9461 -0.613052 
572 16 2 0.749819 30.8441 -0.613052 
573 16 2 0.749819 29.0481 -0.613052 
574 16 2 6.19183 29.5138 1.52692 
576 16 2 4.63632 28.6158 1.52692 
721 25 2 -1.19823 23.4235 7.74115 
722 25 2 0.165097 24.6558 10.2381 
723 25 2 -1.58836 24.6709 10.0406 
724 25 2 0.0845569 22.1353 10.0061 
725 25 2 -1.58303 23.0176 12.3754 
726 25 2 -0.729765 21.4853 12.181 
727 25 2 0.645721 24.2018 12.1479 
728 25 2 -0.118787 23.639 14.7478 
729 25 2 1.52993 23.0125 14.6923 
730 25 2 -1.519 25.5407 7.40359 
731 25 2 0.036499 26.4387 7.40359 
732 25 2 0.036499 24.6427 7.40359 
733 25 2 -3.08368 22.0039 9.53964 
734 25 2 -1.52818 22.9019 9.53964 
735 25 2 -1.52818 21.1059 9.53964 
736 25 2 2.87683 22.4362 11.6796 
737 25 2 1.32132 23.3342 11.6796 
738 25 2 1.32132 21.5382 11.6796 
742 26 2 -1.60415 18.2786 7.62215 
743 26 2 -0.729765 20.0747 8.9756 
744 26 2 -1.58303 18.5424 9.16998 
745 26 2 0.510551 19.3975 9.75678 
746 26 2 1.52993 18.5475 11.4869 
747 26 2 -0.118787 17.921 11.5424 
751 26 2 -3.08368 19.5561 6.33421 
752 26 2 -1.52818 20.4541 6.33421 
753 26 2 -1.52818 18.6581 6.33421 
754 26 2 2.87683 19.1238 8.47418 
755 26 2 1.32132 20.0218 8.47418 
756 26 2 1.32132 18.2258 8.47418 
775 28 2 -3.13116 27.1971 6.15037 
776 28 2 -4.90336 27.2791 7.37155 
777 28 2 -3.1499 27.2942 7.56906 
784 28 2 -4.834 26.4093 4.73456 
785 28 2 -3.2785 27.3073 4.73456 
786 28 2 -3.2785 25.5113 4.73456 
793 29 2 5.43177 23.4235 6.66834 
794 29 2 6.7951 24.6558 9.16528 
795 29 2 5.04164 24.6709 8.96776 
796 29 2 6.71456 22.1353 8.93333 
797 29 2 5.04697 23.0176 11.3026 
798 29 2 5.90023 21.4853 11.1082 
799 29 2 7.27572 24.2018 11.0751 
800 29 2 6.51121 23.639 13.675 
801 29 2 8.15993 23.0125 13.6195 
802 29 2 7.185 25.5407 6.33078 
803 29 2 5.6295 26.4387 6.33078 
804 29 2 5.6295 24.6427 6.33078 
805 29 2 5.62032 22.0039 8.46683 
806 29 2 4.06482 22.9019 8.46683 
807 29 2 4.06482 21.1059 8.46683 
808 29 2 9.50682 22.4362 10.6068 
809 29 2 7.95132 23.3342 10.6068 
810 29 2 7.95132 21.5382 10.6068 
814 30 2 5.02585 18.2786 6.54934 
815 30 2 5.90023 20.0747 7.90279 
816 30 2 5.04697 18.5424 8.09717 
817 30 2 7.14055 19.3975 8.68397 
818 30 2 8.15993 18.5475 10.4141 
819 30 2 6.51121 17.921 10.4696 
823 30 2 5.62032 19.5561 5.2614 
824 30 2 4.06482 20.4541 5.2614 
825 30 2 4.06482 18.6581 5.2614 
826 30 2 9.50682 19.1238 7.40137 
827 30 2 7.95132 20.0218 7.40137 
828 30 2 7.95132 18.2258 7.40137 
847 32 2 3.49884 27.1971 5.07756 
848 32 2 1.72664 27.2791 6.29874 
849 32 2 3.4801 27.2942 6.49625 
850 32 2 1.71085 28.6686 7.08574 
856 32 2 3.87 26.4093 3.66175 
857 32 2 2.3145 27.3073 3.66175 
858 32 2 2.3145 25.5113 3.66175 
861 32 2 0.749819 29.0481 5.7978 
864 32 2 4.63632 28.6158 7.93777 
ITEM: TIMESTEP
100
ITEM: NUMBER OF ATOMS
864
ITEM: BOX BOUNDS xy xz yz pp pp pp