ITEM: TIMESTEP
0
ITEM: NUMBER OF ATOMS
216
ITEM: BOX BOUNDS xy xz yz pp pp pp
-7.3986809999999998e+00 7.1719499644999996e+00 0.0000000000000000e+00
-1.6563260794759998e+01 1.1064057999999999e+01 3.2951249644999998e+00
-2.8426993342800002e+00 1.6284213020399999e+01 -5.4992027947600004e+00
ITEM: ATOMS id mol type xu yu zu 
10 2 1 -0.482001 -4.7607 -1.8427 
11 2 1 -0.507195 -3.30818 -1.33601 
12 2 1 -0.676923 -3.32896 0.17236 
13 2 1 -2.04668 -1.22394 0.293352 
14 2 1 -0.759798 -1.92838 0.800571 
15 2 1 -0.692172 -1.77461 2.30964 
16 2 1 1.83982 -1.65617 2.43332 
17 2 1 0.578136 -2.40217 2.93879 
18 2 1 0.680238 -2.53724 4.44741 
19 3 1 -3.797 -5.6293 1.89913 
20 3 1 -3.8222 -7.08182 2.40582 
21 3 1 -3.99192 -7.06104 3.91419 
22 3 1 -5.36168 -9.16606 4.03519 
23 3 1 -4.0748 -8.46162 4.5424 
24 3 1 -4.00717 -8.61539 6.05148 
25 3 1 -1.47518 -8.73383 6.17515 
26 3 1 -2.73686 -7.98783 6.68062 
46 6 1 -0.482001 -4.7607 4.56816 
47 6 1 -0.507195 -3.30818 5.07484 
48 6 1 -0.676923 -3.32896 6.58322 
91 2 2 0.18384 -3.97287 -0.796888 
92 2 2 -1.58836 -3.89093 0.424287 
93 2 2 0.165097 -3.87577 0.621802 
94 2 2 -1.60415 -2.50142 1.21129 
96 2 2 -1.58303 -2.23758 2.75912 
99 2 2 -0.118787 -2.85902 5.13152 
100 2 2 -1.519 -4.7607 -1.4727 
101 2 2 0.036499 -5.6587 -1.4727 
102 2 2 0.036499 -3.8627 -1.4727 
103 2 2 -3.08368 -1.22394 -0.0766478 
104 2 2 -1.52818 -2.12194 -0.0766478 
106 2 2 2.87682 -1.65617 2.06332 
107 2 2 1.32132 -2.55417 2.06332 
109 3 2 -4.51323 -7.74652 1.8667 
110 3 2 -3.1499 -6.51423 4.36364 
111 3 2 -4.90336 -6.49907 4.16612 
112 3 2 -3.23044 -9.03466 4.13168 
113 3 2 -4.89803 -8.15242 6.50095 
114 3 2 -4.04477 -9.68474 6.30658 
115 3 2 -2.66928 -6.96819 6.27348 
118 3 2 -4.834 -5.6293 1.52913 
119 3 2 -3.2785 -6.5273 1.52913 
120 3 2 -3.2785 -4.7313 1.52913 
121 3 2 -6.39868 -9.16606 3.66519 
122 3 2 -4.84318 -10.0641 3.66519 
123 3 2 -4.84318 -8.26806 3.66519 
124 3 2 -2.51218 -8.73383 5.80515 
125 3 2 -0.956675 -9.63183 5.80515 
126 3 2 -0.956675 -7.83583 5.80515 
131 4 2 -4.04477 9.68474 3.10115 
143 4 2 -0.956675 9.63183 2.59972 
163 6 2 0.18384 -3.97287 5.61397 
172 6 2 -1.519 -4.7607 4.19816 
173 6 2 0.036499 -5.6587 4.19816 
174 6 2 0.036499 -3.8627 4.19816 
27 3 1 -2.63476 -7.85276 8.18924 
55 7 1 -3.797 -5.6293 8.30999 
56 7 1 -3.8222 -7.08182 8.81668 
57 7 1 -3.99192 -7.06104 10.325 
59 7 1 -4.0748 -8.46162 10.9533 
60 7 1 -4.00717 -8.61539 12.4623 
61 7 1 -1.47518 -8.73383 12.586 
62 7 1 -2.73686 -7.98783 13.0915 
63 7 1 -2.63476 -7.85276 14.6001 
67 8 1 -5.36168 9.16606 7.24061 
68 8 1 -4.0748 8.46162 7.74783 
69 8 1 -4.00717 8.61539 9.2569 
70 8 1 -1.47518 8.73383 9.38058 
71 8 1 -2.73686 7.98783 9.88605 
72 8 1 -2.63476 7.85276 11.3947 
116 3 2 -3.43379 -7.53098 8.87336 
117 3 2 -1.78507 -8.15749 8.81787 
164 6 2 -1.58836 -3.89093 6.83514 
165 6 2 0.165097 -3.87577 7.03266 
181 7 2 -4.51323 -7.74652 8.27755 
182 7 2 -3.1499 -6.51423 10.7745 
183 7 2 -4.90336 -6.49907 10.577 
184 7 2 -3.23044 -9.03466 10.5425 
186 7 2 -4.04477 -9.68474 12.7174 
187 7 2 -2.66928 -6.96819 12.6843 
188 7 2 -3.43379 -7.53098 15.2842 
189 7 2 -1.78507 -8.15749 15.2287 
190 7 2 -4.834 -5.6293 7.93999 
191 7 2 -3.2785 -6.5273 7.93999 
192 7 2 -3.2785 -4.7313 7.93999 
194 7 2 -4.84318 -10.0641 10.076 
195 7 2 -4.84318 -8.26806 10.076 
196 7 2 -2.51218 -8.73383 12.216 
197 7 2 -0.956675 -9.63183 12.216 
198 7 2 -0.956675 -7.83583 12.216 
203 8 2 -4.04477 9.68474 9.512 
204 8 2 -4.89803 8.15242 9.70638 
205 8 2 -2.80445 9.00748 10.2932 
206 8 2 -1.78507 8.15749 12.0233 
207 8 2 -3.43379 7.53098 12.0788 
212 8 2 -4.84318 10.0641 6.87061 
214 8 2 -2.51218 8.73383 9.01058 
215 8 2 -0.956675 9.63183 9.01058 
216 8 2 -0.956675 7.83583 9.01058 
58 7 1 -5.36168 -9.16606 10.446 
185 7 2 -4.89803 -8.15242 12.9118 
193 7 2 -6.39868 -9.16606 10.076 
211 8 2 -6.39868 9.16606 6.87061 
1 1 1 -0.482001 4.7607 1.36273 
2 1 1 -0.507195 3.30818 1.86942 
3 1 1 -0.676923 3.32896 3.37779 
4 1 1 -2.04668 1.22394 3.49878 
5 1 1 -0.759798 1.92838 4.006 
6 1 1 -0.692172 1.77461 5.51507 
7 1 1 1.83982 1.65617 5.63875 
8 1 1 0.578136 2.40217 6.14421 
28 4 1 -3.797 5.6293 -1.30629 
29 4 1 -3.8222 7.08182 -0.799607 
30 4 1 -3.99192 7.06104 0.708765 
31 4 1 -5.36168 9.16606 0.829757 
32 4 1 -4.0748 8.46162 1.33698 
33 4 1 -4.00717 8.61539 2.84605 
34 4 1 -1.47518 8.73383 2.96972 
35 4 1 -2.73686 7.98783 3.47519 
36 4 1 -2.63476 7.85276 4.98381 
49 6 1 -2.04668 -1.22394 6.70421 
64 8 1 -3.797 5.6293 5.10456 
65 8 1 -3.8222 7.08182 5.61125 
73 1 2 -1.19823 2.64348 1.33029 
74 1 2 0.165097 3.87577 3.82723 
75 1 2 -1.58836 3.89093 3.62972 
76 1 2 0.0845569 1.35534 3.59528 
77 1 2 -1.58303 2.23758 5.96455 
78 1 2 -0.729765 0.705261 5.77017 
79 1 2 0.645721 3.42181 5.73708 
82 1 2 -1.519 4.7607 0.992729 
83 1 2 0.036499 5.6587 0.992729 
84 1 2 0.036499 3.8627 0.992729 
85 1 2 -3.08368 1.22394 3.12878 
86 1 2 -1.52818 2.12194 3.12878 
87 1 2 -1.52818 0.325942 3.12878 
88 1 2 2.87682 1.65617 5.26875 
89 1 2 1.32132 2.55417 5.26875 
90 1 2 1.32132 0.758166 5.26875 
95 2 2 -0.729765 -0.705261 2.56474 
97 2 2 0.510551 -1.38252 3.34592 
98 2 2 1.52993 -2.23251 5.07603 
105 2 2 -1.52818 -0.325942 -0.0766478 
108 2 2 1.32132 -0.758166 2.06332 
127 4 2 -3.13116 6.41713 -0.260483 
128 4 2 -4.90336 6.49907 0.960692 
129 4 2 -3.1499 6.51423 1.15821 
130 4 2 -4.91915 7.88858 1.7477 
132 4 2 -4.89803 8.15242 3.29553 
133 4 2 -2.80445 9.00748 3.88233 
134 4 2 -1.78507 8.15749 5.61244 
135 4 2 -3.43379 7.53098 5.66793 
136 4 2 -4.834 5.6293 -0.936295 
137 4 2 -3.2785 6.5273 -0.936295 
138 4 2 -3.2785 4.7313 -0.936295 
139 4 2 -6.39868 9.16606 0.459757 
140 4 2 -4.84318 10.0641 0.459757 
141 4 2 -4.84318 8.26806 0.459757 
142 4 2 -2.51218 8.73383 2.59972 
144 4 2 -0.956675 7.83583 2.59972 
175 6 2 -3.08368 -1.22394 6.33421 
176 6 2 -1.52818 -2.12194 6.33421 
177 6 2 -1.52818 -0.325942 6.33421 
199 8 2 -3.13116 6.41713 6.15037 
208 8 2 -4.834 5.6293 4.73456 
209 8 2 -3.2785 6.5273 4.73456 
210 8 2 -3.2785 4.7313 4.73456 
9 1 1 0.680238 2.53724 7.65284 
37 5 1 -0.482001 4.7607 7.77359 
38 5 1 -0.507195 3.30818 8.28027 
39 5 1 -0.676923 3.32896 9.78864 
40 5 1 -2.04668 1.22394 9.90964 
41 5 1 -0.759798 1.92838 10.4169 
42 5 1 -0.692172 1.77461 11.9259 
43 5 1 1.83982 1.65617 12.0496 
44 5 1 0.578136 2.40217 12.5551 
45 5 1 0.680238 2.53724 14.0637 
50 6 1 -0.759798 -1.92838 7.21143 
51 6 1 -0.692172 -1.77461 8.7205 
52 6 1 1.83982 -1.65617 8.84418 
53 6 1 0.578136 -2.40217 9.34964 
54 6 1 0.680238 -2.53724 10.8583 
66 8 1 -3.99192 7.06104 7.11962 
80 1 2 -0.118787 2.85902 8.33695 
81 1 2 1.52993 2.23251 8.28146 
145 5 2 -1.19823 2.64348 7.74115 
146 5 2 0.165097 3.87577 10.2381 
147 5 2 -1.58836 3.89093 10.0406 
148 5 2 0.0845569 1.35534 10.0061 
149 5 2 -1.58303 2.23758 12.3754 
150 5 2 -0.729765 0.705261 12.181 
151 5 2 0.645721 3.42181 12.1479 
152 5 2 -0.118787 2.85902 14.7478 
153 5 2 1.52993 2.23251 14.6923 
154 5 2 -1.519 4.7607 7.40359 
155 5 2 0.036499 5.6587 7.40359 
156 5 2 0.036499 3.8627 7.40359 
157 5 2 -3.08368 1.22394 9.53964 
158 5 2 -1.52818 2.12194 9.53964 
159 5 2 -1.52818 0.325942 9.53964 
160 5 2 2.87683 1.65617 11.6796 
161 5 2 1.32132 2.55417 11.6796 
162 5 2 1.32132 0.758166 11.6796 
166 6 2 -1.60415 -2.50142 7.62215 
167 6 2 -0.729765 -0.705261 8.9756 
168 6 2 -1.58303 -2.23758 9.16998 
169 6 2 0.510551 -1.38252 9.75678 
170 6 2 1.52993 -2.23251 11.4869 
171 6 2 -0.118787 -2.85902 11.5424 
179 6 2 1.32132 -2.55417 8.47418 
180 6 2 1.32132 -0.758166 8.47418 
200 8 2 -4.90336 6.49907 7.37155 
201 8 2 -3.1499 6.51423 7.56906 
202 8 2 -4.91915 7.88858 8.15855 
213 8 2 -4.84318 8.26806 6.87061 
178 6 2 2.87682 -1.65617 8.47418 
ITEM: TIMESTEP
100
ITEM: NUMBER OF ATOMS
216
ITEM: BOX BOUNDS xy xz yz pp pp pp
-7.3986809999999998e+00 7.1719499644999996e+00 0.0000000000000000e+00
-1.6563260794759998e+01 1.1064057999999999e+01 3.2951249644999998e+00
-2.8426993342800002e+00 1.6284213020399999e+01 -5.4992027947600004e+00
ITEM: ATOMS id mol type xu yu zu 
10 2 1 -0.506781 -4.5464 -1.7935 
11 2 1 -0.417922 -3.29938 -0.899849 
12 2 1 -0.107105 -3.33632 0.613836 
13 2 1 -1.44994 -1.29402 0.201436 
14 2 1 -1.21487 -2.40482 1.25553 
15 2 1 -1.24416 -1.9361 2.79895 
16 2 1 1.35564 -2.44447 2.18352 
17 2 1 0.248494 -1.89572 3.21266 
213 8 2 -4.50335 8.73729 5.8261 
19 3 1 -3.79008 -5.68901 1.90449 
20 3 1 -3.79879 -7.09539 2.48668 
21 3 1 -3.9124 -7.11074 3.99561 
22 3 1 -5.29028 -9.22849 4.07857 
23 3 1 -4.0499 -8.51076 4.58109 
24 3 1 -4.06355 -8.41771 6.09498 
25 3 1 -1.53384 -8.66855 6.2216 
135 4 2 -3.16012 9.37489 5.80988 
46 6 1 -0.806866 -4.02643 4.30362 
47 6 1 0.130526 -3.28685 5.28065 
108 2 2 1.77377 -1.5509 1.70834 
91 2 2 -0.444773 -2.32491 -1.41616 
92 2 2 -0.270375 -4.35795 0.997069 
93 2 2 0.919607 -3.05516 0.896458 
94 2 2 -2.11739 -3.02928 1.11383 
96 2 2 -1.95676 -2.50626 3.41726 
174 6 2 -0.407767 -3.81638 3.29325 
100 2 2 -1.53031 -4.76395 -1.94725 
101 2 2 -0.262119 -5.49617 -1.33379 
102 2 2 0.390428 -4.53842 -2.37365 
133 4 2 -2.83666 9.57381 3.53724 
104 2 2 -1.51258 -1.79069 -0.787607 
106 2 2 2.19316 -2.93062 2.70469 
107 2 2 0.891801 -3.1071 1.44814 
109 3 2 -4.61321 -7.67579 2.02871 
110 3 2 -3.01688 -6.65901 4.44653 
111 3 2 -4.77503 -6.50223 4.30479 
112 3 2 -3.17143 -9.10386 4.28352 
113 3 2 -4.88477 -7.77799 6.45282 
114 3 2 -4.2605 -9.41929 6.51342 
115 3 2 -2.59506 -6.82454 6.35324 
118 3 2 -4.81285 -5.29543 1.86241 
119 3 2 -3.31778 -5.71391 0.907844 
120 3 2 -3.22835 -5.0019 2.55521 
121 3 2 -6.14076 -9.07404 4.75808 
122 3 2 -5.10801 -10.3116 4.08133 
123 3 2 -5.5478 -8.88238 3.06458 
124 3 2 -1.69857 -9.01055 5.19217 
172 6 2 -1.87263 -3.75543 4.37818 
126 3 2 -0.641775 -8.03448 6.27074 
131 4 2 -4.94054 9.53517 3.32814 
173 6 2 -0.739779 -5.10903 4.50199 
163 6 2 1.07078 -3.86398 5.17157 
26 3 1 -2.76277 -7.86887 6.67063 
27 3 1 -2.85312 -7.9767 8.16712 
55 7 1 -3.83055 -5.67087 8.31317 
56 7 1 -3.93372 -7.10766 8.76193 
57 7 1 -3.7652 -7.20644 10.2442 
59 7 1 -3.99181 -8.56809 10.8683 
60 7 1 -3.99602 -8.333 12.3623 
61 7 1 -1.46915 -8.71867 12.4902 
62 7 1 -2.65306 -7.87835 12.9612 
63 7 1 -2.8187 -7.89549 14.4768 
67 8 1 -4.55206 9.1019 6.86478 
166 6 2 -2.12344 -2.95103 7.26254 
69 8 1 -4.35436 8.62927 9.20493 
70 8 1 -1.6517 8.33732 8.80199 
71 8 1 -2.89223 8.66446 9.69707 
72 8 1 -2.81329 7.60584 10.76 
116 3 2 -3.25141 -8.97173 8.41768 
117 3 2 -1.86356 -7.82292 8.63212 
164 6 2 -0.75389 -4.53155 6.76779 
165 6 2 0.746755 -3.80975 7.34029 
181 7 2 -4.89251 -7.55167 8.45227 
182 7 2 -2.74656 -6.9085 10.5386 
183 7 2 -4.45862 -6.48038 10.6964 
184 7 2 -3.16749 -9.24549 10.6012 
186 7 2 -4.34707 -9.25007 12.8618 
187 7 2 -2.46711 -6.82617 12.6859 
188 7 2 -3.83731 -8.29107 14.6275 
189 7 2 -2.18874 -8.72173 14.8496 
190 7 2 -4.8131 -5.18554 8.38171 
191 7 2 -3.46051 -5.6474 7.27786 
192 7 2 -3.18674 -5.08021 8.9744 
194 7 2 -5.24388 -10.2786 10.4533 
195 7 2 -5.60247 -8.80742 9.45238 
196 7 2 -1.70884 -9.1175 11.4937 
197 7 2 -1.20571 -9.51189 13.1956 
198 7 2 -0.581812 -8.07427 12.4449 
203 8 2 -4.76299 9.65311 9.10318 
204 8 2 -4.99876 8.09577 9.92656 
205 8 2 -2.7086 9.62817 10.2007 
206 8 2 -2.06156 7.8354 11.5297 
207 8 2 -3.76168 7.51436 11.3089 
212 8 2 -3.74465 9.83466 7.04478 
214 8 2 -1.85567 8.55591 7.74594 
215 8 2 -0.836831 8.97091 9.17448 
211 8 2 -5.4909 9.63166 7.06514 
58 7 1 -5.31822 -9.18342 10.4481 
185 7 2 -4.72777 -7.54699 12.612 
193 7 2 -6.09006 -8.94625 11.1912 
48 6 1 -0.181438 -3.58177 6.78272 
125 3 2 -1.31645 -9.49646 6.89926 
1 1 1 -0.476348 4.71966 1.36844 
2 1 1 -0.459454 3.31436 1.94875 
3 1 1 -0.585884 3.29467 3.45533 
4 1 1 -1.94642 1.15037 3.54211 
5 1 1 -0.716536 1.89444 4.04235 
6 1 1 -0.723412 1.98627 5.55847 
7 1 1 1.78602 1.73309 5.67999 
8 1 1 0.569959 2.52837 6.15048 
28 4 1 -3.79481 5.79034 -1.22929 
29 4 1 -3.77841 7.06835 -0.363314 
30 4 1 -3.39766 7.10584 1.11408 
31 4 1 -4.7824 9.13163 0.725083 
32 4 1 -4.54196 8.0012 1.77849 
33 4 1 -4.56236 8.49484 3.32007 
34 4 1 -1.99213 7.91433 2.73925 
35 4 1 -3.0682 8.50792 3.75525 
36 4 1 -2.77437 8.4803 5.27958 
49 6 1 -1.18926 -1.23704 6.35513 
64 8 1 -4.12538 6.401 4.83427 
65 8 1 -3.18513 7.1334 5.8202 
73 1 2 -1.25986 2.7214 1.48266 
74 1 2 0.291719 3.77096 3.92105 
75 1 2 -1.46398 3.88826 3.75277 
76 1 2 0.169192 1.3042 3.75877 
77 1 2 -1.54373 2.6319 5.91308 
78 1 2 -0.924102 0.983561 5.97374 
79 1 2 0.742972 3.57032 5.84305 
82 1 2 -1.50525 5.09273 1.29568 
83 1 2 0.0480754 5.42428 2.03233 
84 1 2 0.0184123 4.70454 0.384981 
85 1 2 -2.80084 1.30245 4.21219 
86 1 2 -2.18471 1.48112 2.51694 
87 1 2 -1.75167 0.0703401 3.56787 
88 1 2 2.62672 1.91233 6.36424 
89 1 2 2.07384 2.08569 4.67561 
90 1 2 1.61663 0.651045 5.70501 
95 2 2 -1.62801 -0.900071 2.82312 
97 2 2 0.454202 -0.82214 3.0129 
210 8 2 -4.01134 5.31184 4.98137 
105 2 2 -0.653866 -0.534703 0.206393 
98 2 2 1.67425 -1.96572 4.87468 
127 4 2 -3.7533 8.03277 -0.898713 
128 4 2 -3.52161 6.06617 1.44746 
129 4 2 -2.36264 7.41688 1.32478 
130 4 2 -5.44785 7.37103 1.66087 
132 4 2 -5.28213 7.92874 3.93697 
209 8 2 -3.75466 6.6456 3.82167 
134 4 2 -1.67802 8.48423 5.44011 
208 8 2 -5.19165 6.63445 4.96149 
136 4 2 -4.65801 5.88668 -1.95945 
137 4 2 -3.12986 5.88728 -2.1524 
138 4 2 -3.72444 4.87097 -0.624893 
139 4 2 -5.75231 9.61578 0.897957 
199 8 2 -2.24056 6.56758 5.67067 
141 4 2 -4.77811 8.62864 -0.261139 
142 4 2 -2.38704 8.07871 1.72344 
144 4 2 -1.79402 6.84442 2.89993 
99 2 2 0.218788 -1.0407 5.26699 
176 6 2 -1.08804 -1.54297 5.30164 
177 6 2 -0.406081 -0.505496 6.62474 
18 2 1 0.573593 -1.95113 4.73901 
140 4 2 -4.0039 9.90981 0.743854 
103 2 2 -2.41182 -0.796817 0.398857 
143 4 2 -1.04315 8.45426 2.85414 
175 6 2 -2.14496 -0.721253 6.53312 
9 1 1 0.459752 2.40579 7.65009 
37 5 1 -0.507149 4.72826 7.78895 
38 5 1 -0.635023 3.27934 8.22757 
39 5 1 -0.456168 3.18991 9.71573 
40 5 1 -1.99353 1.18475 9.90409 
41 5 1 -0.67024 1.81746 10.3248 
42 5 1 -0.667244 2.05237 11.824 
43 5 1 1.85984 1.69951 11.9523 
44 5 1 0.661471 2.50525 12.4176 
45 5 1 0.485793 2.47306 13.9253 
50 6 1 -1.12931 -2.46565 7.29568 
51 6 1 -1.02872 -1.79036 8.67533 
52 6 1 1.65661 -2.03753 8.24415 
53 6 1 0.435522 -1.7272 9.15748 
54 6 1 0.530904 -2.76722 10.241 
66 8 1 -3.46839 6.82552 7.33028 
80 1 2 0.0609729 1.4138 7.91698 
81 1 2 1.46108 2.55022 8.10273 
145 5 2 -1.59561 2.82443 7.92195 
146 5 2 0.560344 3.50007 10.0072 
147 5 2 -1.14359 3.91761 10.1746 
148 5 2 0.163221 1.15366 10.0488 
149 5 2 -1.40399 2.83211 12.0794 
150 5 2 -0.997615 1.13202 12.3299 
151 5 2 0.829205 3.55978 12.1421 
152 5 2 -0.551057 2.16245 14.1364 
153 5 2 1.17775 1.73323 14.3571 
154 5 2 -1.50135 5.19363 7.78703 
155 5 2 0.0846677 5.31959 8.50132 
178 6 2 2.49268 -2.37316 8.89578 
157 5 2 -2.76903 1.41318 10.6484 
158 5 2 -2.30047 1.56259 8.91811 
159 5 2 -1.91213 0.09089 9.90061 
160 5 2 2.70676 1.8473 12.6268 
161 5 2 2.11734 2.02827 10.9354 
162 5 2 1.65307 0.626527 11.9849 
216 8 2 -1.29201 7.30714 8.94749 
167 6 2 -1.45913 -0.772068 8.61264 
168 6 2 -1.6508 -2.32064 9.41552 
169 6 2 0.60235 -0.743878 9.63079 
170 6 2 1.25815 -2.46756 11.0134 
171 6 2 -0.424366 -2.84055 10.7789 
179 6 2 1.48276 -2.83436 7.50369 
180 6 2 1.95369 -1.09679 7.76233 
200 8 2 -4.01322 5.85763 7.32427 
201 8 2 -2.52763 6.62802 7.87933 
202 8 2 -5.42568 7.39492 7.83745 
68 8 1 -4.44491 7.9124 7.83908 
156 5 2 -0.0395328 4.76915 6.78961 
ITEM: TIMESTEP
200
ITEM: NUMBER OF ATOMS
216
ITEM: BOX BOUNDS xy xz yz pp pp pp
-7.3986809999999998e+00 7.1719499644999996e+00 0.0000000000000000e+00
-1.6563260794759998e+01 1.1064057999999999e+01 3.2951249644999998e+00
-2.8426993342800002e+00 1.6284213020399999e+01 -5.4992027947600004e+00
ITEM: ATOMS id mol type xu yu zu 
10 2 1 -0.312584 -4.34169 -1.13802 
11 2 1 0.386717 -3.27736 -0.246184 
12 2 1 -0.164882 -3.18152 1.2473 
13 2 1 -1.39889 -0.968817 1.35043 
14 2 1 -1.59236 -2.47616 1.49832 
15 2 1 -1.62691 -2.46395 3.00173 
16 2 1 1.02355 -3.2853 3.18173 
26 3 1 -2.81475 -7.86464 6.66729 
163 6 2 1.23552 -3.49191 4.38841 
19 3 1 -3.80032 -5.69919 1.87061 
20 3 1 -3.81484 -7.08224 2.45587 
21 3 1 -3.87773 -7.06791 3.98333 
22 3 1 -5.24654 -9.25152 3.96344 
23 3 1 -4.0354 -8.52334 4.57003 
24 3 1 -4.12337 -8.5003 6.11148 
25 3 1 -1.62295 -8.65035 6.05485 
135 4 2 -3.56355 9.69433 5.2352 
46 6 1 -0.969094 -3.59345 4.91973 
47 6 1 0.482267 -2.9095 4.9504 
108 2 2 1.85538 -3.01538 2.48487 
91 2 2 -0.0473584 -2.35799 -0.717516 
92 2 2 -0.075265 -4.10831 1.8388 
93 2 2 0.543563 -2.47299 1.71928 
94 2 2 -2.43749 -2.85889 0.906109 
96 2 2 -1.95655 -3.37483 3.52076 
174 6 2 -1.37091 -3.66757 3.89433 
100 2 2 -1.37667 -3.97296 -1.06751 
101 2 2 -0.383537 -5.40804 -0.687628 
102 2 2 0.334921 -4.60384 -2.07598 
133 4 2 -3.03152 8.65162 2.64723 
104 2 2 -1.31433 -0.856061 0.259697 
106 2 2 1.40589 -3.41501 4.21106 
107 2 2 0.722876 -4.2822 2.81341 
109 3 2 -4.62644 -7.67358 2.00906 
110 3 2 -2.96157 -6.60646 4.38575 
111 3 2 -4.70508 -6.43454 4.33857 
112 3 2 -3.13552 -9.07953 4.26689 
113 3 2 -5.00775 -7.91782 6.41371 
114 3 2 -4.22216 -9.51564 6.53089 
115 3 2 -2.80689 -6.82156 6.29868 
118 3 2 -4.81025 -5.27797 1.75987 
119 3 2 -3.35805 -5.70134 0.859739 
120 3 2 -3.13745 -5.02524 2.42547 
121 3 2 -6.20223 -8.95312 4.40639 
122 3 2 -5.16104 -10.3435 3.87502 
123 3 2 -5.36375 -8.85479 2.94451 
124 3 2 -1.93586 -8.92327 5.03559 
172 6 2 -1.61396 -2.92243 5.50469 
126 3 2 -0.637556 -8.1608 5.97415 
173 6 2 -1.00728 -4.65497 5.22312 
95 2 2 -2.16087 -1.5813 3.38506 
134 4 2 -1.8887 9.38818 4.65995 
67 8 1 -4.17243 9.36931 6.33709 
48 6 1 0.602479 -2.92299 6.48035 
166 6 2 -1.60388 -3.06652 5.93533 
125 3 2 -1.51435 -9.65784 6.46571 
212 8 2 -3.21608 9.81315 6.63154 
211 8 2 -5.01539 10.014 6.57288 
27 3 1 -2.71113 -7.98296 8.20516 
55 7 1 -3.85546 -5.76832 8.18191 
56 7 1 -3.84416 -7.1496 8.84056 
57 7 1 -3.85078 -7.03998 10.3721 
59 7 1 -3.96568 -8.45994 11.007 
60 7 1 -4.09899 -8.47632 12.5379 
61 7 1 -1.61288 -8.71944 12.4445 
62 7 1 -2.75768 -7.91622 13.1167 
63 7 1 -2.59899 -7.91815 14.6559 
193 7 2 -6.15483 -8.74018 10.7028 
185 7 2 -4.98414 -7.88233 12.814 
69 8 1 -4.55882 8.34394 8.46058 
70 8 1 -2.25269 7.81794 8.01916 
71 8 1 -3.15131 8.44384 9.10712 
72 8 1 -2.76673 7.27024 10.033 
116 3 2 -2.79927 -9.06654 8.45808 
117 3 2 -1.754 -7.75175 8.713 
164 6 2 0.764937 -3.93812 6.87212 
58 7 1 -5.1946 -9.08138 10.3014 
181 7 2 -4.77831 -7.65765 8.55536 
182 7 2 -2.96919 -6.48087 10.7237 
183 7 2 -4.73107 -6.45502 10.691 
184 7 2 -3.07249 -9.02471 10.6995 
186 7 2 -4.24394 -9.5059 12.9004 
187 7 2 -2.69849 -6.87119 12.7607 
188 7 2 -3.49799 -7.86321 15.2659 
189 7 2 -1.84335 -8.59416 15.0612 
190 7 2 -4.83383 -5.2662 8.115 
191 7 2 -3.49005 -5.93389 7.15691 
192 7 2 -3.07014 -5.10643 8.56304 
194 7 2 -5.206 -10.1673 10.1132 
195 7 2 -5.22847 -8.58131 9.31837 
196 7 2 -1.97743 -9.04849 11.4561 
197 7 2 -1.45702 -9.69698 12.9137 
198 7 2 -0.669104 -8.17155 12.276 
203 8 2 -5.04416 9.33785 8.44617 
204 8 2 -5.23577 7.66399 9.00268 
205 8 2 -2.89736 9.45988 9.44671 
206 8 2 -1.80852 7.45248 10.5427 
207 8 2 -3.49713 6.95809 10.7945 
215 8 2 -1.25193 8.23232 7.95913 
214 8 2 -2.61412 8.03509 7.01695 
1 1 1 -0.486269 4.70791 1.33059 
2 1 1 -0.476379 3.32348 1.91509 
3 1 1 -0.56233 3.3424 3.44367 
4 1 1 -1.89547 1.13239 3.40161 
5 1 1 -0.708336 1.88083 4.03282 
6 1 1 -0.787482 1.91029 5.57745 
7 1 1 1.70647 1.7438 5.52464 
8 1 1 0.522773 2.52778 6.15405 
28 4 1 -3.51944 5.90346 -0.520358 
29 4 1 -3.01023 7.23896 0.244745 
30 4 1 -3.59239 7.19584 1.69942 
31 4 1 -4.72626 9.52608 1.8377 
32 4 1 -4.93988 7.99636 1.97851 
33 4 1 -4.92212 8.0341 3.48605 
34 4 1 -2.31939 7.03094 3.78751 
35 4 1 -3.34236 8.18549 3.59912 
36 4 1 -2.87309 8.9314 4.82106 
49 6 1 -0.728729 -0.94108 5.90728 
64 8 1 -4.25643 6.81581 5.504 
65 8 1 -2.80764 7.51373 5.52954 
73 1 2 -1.28255 2.73464 1.45576 
74 1 2 0.351462 3.80697 3.85393 
75 1 2 -1.4006 3.9709 3.78331 
76 1 2 0.206968 1.34382 3.73696 
77 1 2 -1.67769 2.49138 5.87507 
78 1 2 -0.900909 0.894908 5.99531 
79 1 2 0.512678 3.56842 5.79884 
82 1 2 -1.5057 5.09885 1.19352 
83 1 2 0.146493 5.40032 1.89759 
84 1 2 -0.0167555 4.71784 0.33556 
85 1 2 -2.86653 1.42737 3.81349 
86 1 2 -1.99264 1.5235 2.37425 
87 1 2 -1.79364 0.038443 3.32392 
88 1 2 2.71341 1.79283 5.9512 
89 1 2 1.86482 2.04268 4.47292 
90 1 2 1.36566 0.698363 5.44705 
175 6 2 -1.57068 -0.287941 6.11916 
97 2 2 0.153569 -1.6404 2.12137 
210 8 2 -4.26123 5.73662 5.74613 
105 2 2 -0.458112 -0.637406 1.8158 
98 2 2 1.38549 -0.979341 4.15213 
127 4 2 -3.46502 8.16861 -0.169678 
128 4 2 -3.60756 6.1598 2.06899 
129 4 2 -2.83833 7.73362 2.30253 
130 4 2 -5.79219 7.58226 1.42003 
132 4 2 -5.33355 7.12802 3.95466 
209 8 2 -4.69817 6.80755 4.48614 
143 4 2 -1.34128 7.50953 3.88215 
208 8 2 -4.92064 7.42899 6.13712 
136 4 2 -4.33115 6.12497 -1.14655 
137 4 2 -2.91241 5.5197 -1.2769 
138 4 2 -3.81272 5.46861 0.365868 
139 4 2 -5.60034 10.1421 2.06542 
199 8 2 -2.06388 6.92365 4.95929 
141 4 2 -4.66097 9.58118 0.746485 
142 4 2 -2.21058 6.49405 2.84653 
144 4 2 -2.54558 6.38733 4.63539 
99 2 2 -0.30021 -0.731909 4.76636 
176 6 2 -0.689337 -0.922109 4.82052 
177 6 2 0.210705 -0.554355 6.31513 
18 2 1 0.410432 -1.45668 4.31371 
140 4 2 -3.79782 9.91015 2.27796 
103 2 2 -2.24207 -0.325571 1.63061 
17 2 1 -0.041551 -2.17446 3.06178 
213 8 2 -4.2316 9.29908 5.2514 
131 4 2 -5.40462 8.93317 3.89913 
156 5 2 -0.0862616 4.46225 6.64992 
9 1 1 0.598976 2.40745 7.69216 
37 5 1 -0.532989 4.61793 7.64791 
38 5 1 -0.538829 3.24487 8.31756 
39 5 1 -0.527435 3.34593 9.84964 
40 5 1 -1.86017 1.29477 9.7567 
41 5 1 -0.654205 1.93139 10.4699 
42 5 1 -0.780776 1.90795 11.9974 
43 5 1 1.71056 1.68736 11.8997 
44 5 1 0.549879 2.46094 12.5808 
45 5 1 0.711455 2.46876 14.1125 
50 6 1 -0.879335 -2.42026 6.46435 
51 6 1 -1.24301 -2.10556 7.9107 
52 6 1 1.0462 -2.51996 7.4526 
53 6 1 0.155208 -1.9483 8.56257 
54 6 1 0.583565 -3.05282 9.53696 
66 8 1 -2.68113 7.56199 7.06088 
80 1 2 0.533706 1.33392 7.94092 
81 1 2 1.5239 2.65991 8.2331 
145 5 2 -1.48692 2.74811 8.03886 
146 5 2 0.387932 3.87704 10.1525 
147 5 2 -1.38546 3.94529 10.1954 
148 5 2 0.241431 1.36317 10.1719 
149 5 2 -1.65597 2.49561 12.3157 
150 5 2 -0.930353 0.872039 12.3394 
151 5 2 0.596361 3.50852 12.2349 
152 5 2 -0.169148 2.46067 14.7726 
153 5 2 1.48311 1.79966 14.517 
154 5 2 -1.52366 5.07113 7.49595 
155 5 2 0.174635 5.32143 8.09595 
178 6 2 1.94945 -3.01814 7.83728 
157 5 2 -2.82698 1.57709 10.1814 
158 5 2 -1.91809 1.8039 8.78302 
159 5 2 -1.80806 0.2179 9.54246 
160 5 2 2.71475 1.76151 12.3318 
161 5 2 1.87179 2.01851 10.8579 
162 5 2 1.36606 0.644463 11.8218 
216 8 2 -2.23004 6.72839 8.19163 
167 6 2 -1.74818 -1.12389 7.89895 
168 6 2 -1.88807 -2.82013 8.43985 
169 6 2 0.383043 -0.915375 8.87768 
170 6 2 1.54631 -2.82855 10.0274 
171 6 2 -0.103445 -3.33352 10.3421 
179 6 2 0.584886 -3.32992 6.88328 
180 6 2 1.35522 -1.7799 6.70592 
200 8 2 -2.42402 6.57948 7.48827 
201 8 2 -2.09153 8.37597 7.53224 
202 8 2 -4.89099 7.21009 6.55609 
68 8 1 -4.20626 7.94286 7.02274 
165 6 2 1.27124 -2.1947 6.98468 
ITEM: TIMESTEP
300
ITEM: NUMBER OF ATOMS
216
ITEM: BOX BOUNDS xy xz yz pp pp pp
-7.3986809999999998e+00 7.1719499644999996e+00 0.0000000000000000e+00
-1.6563260794759998e+01 1.1064057999999999e+01 3.2951249644999998e+00
-2.8426993342800002e+00 1.6284213020399999e+01 -5.4992027947600004e+00
ITEM: ATOMS id mol type xu yu zu 
10 2 1 -0.198768 -4.10537 -1.07649 
11 2 1 0.298408 -3.03992 -0.156996 
12 2 1 -0.333212 -3.19145 1.22115 
18 2 1 0.863957 -2.11711 3.93392 
14 2 1 -1.55949 -2.32471 1.53605 
15 2 1 -1.42832 -2.31857 3.05453 
16 2 1 0.525788 -4.15089 2.76414 
26 3 1 -2.79154 -7.87878 6.61324 
163 6 2 1.99842 -3.2336 5.46384 
19 3 1 -3.79783 -5.73601 1.82023 
20 3 1 -3.86136 -7.12199 2.42734 
21 3 1 -3.89088 -7.07905 3.98563 
22 3 1 -5.25874 -9.18233 3.95939 
23 3 1 -4.01371 -8.48606 4.49783 
24 3 1 -4.02643 -8.43997 6.05969 
25 3 1 -1.57871 -8.64285 6.1451 
135 4 2 -2.68155 9.25969 4.58093 
46 6 1 0.057483 -4.0688 4.94994 
47 6 1 0.96549 -2.9307 5.23913 
108 2 2 1.49256 -4.22308 2.24001 
91 2 2 1.41172 -2.91956 -0.209204 
92 2 2 -0.511498 -4.26022 1.44963 
93 2 2 0.428491 -2.89717 1.9729 
94 2 2 -2.48398 -2.82839 1.14125 
96 2 2 -1.97159 -3.14368 3.54146 
174 6 2 -0.110611 -4.10005 3.85892 
100 2 2 -1.32872 -4.28343 -1.13506 
101 2 2 0.186744 -5.08509 -0.494401 
102 2 2 0.453501 -4.26726 -1.97023 
131 4 2 -4.72729 9.09157 4.28232 
125 3 2 -1.42406 -9.58891 6.69468 
106 2 2 0.800482 -4.44525 3.78973 
107 2 2 -0.0678721 -4.90787 2.24696 
109 3 2 -4.74455 -7.65762 2.04874 
110 3 2 -3.02044 -6.5747 4.43466 
111 3 2 -4.76885 -6.5097 4.33194 
112 3 2 -3.13274 -9.05924 4.17395 
113 3 2 -4.87762 -7.8707 6.47092 
114 3 2 -4.158 -9.4708 6.43067 
115 3 2 -2.66584 -6.81756 6.33311 
118 3 2 -4.77217 -5.22902 1.75627 
119 3 2 -3.41424 -5.70793 0.787047 
120 3 2 -3.16144 -5.1063 2.46601 
121 3 2 -6.15869 -8.8926 4.5298 
122 3 2 -5.13409 -10.2766 4.0356 
123 3 2 -5.43932 -9.01344 2.88123 
124 3 2 -1.54875 -8.87548 5.06169 
172 6 2 -0.956787 -3.96721 5.34773 
126 3 2 -0.678184 -8.01224 6.23546 
173 6 2 0.578524 -5.00448 5.27363 
139 4 2 -5.8372 10.1413 1.74753 
17 2 1 0.0373896 -2.75163 2.78746 
97 2 2 0.312563 -2.22552 1.86369 
213 8 2 -5.36642 10.0865 5.74627 
140 4 2 -4.25088 10.167 2.4324 
201 8 2 -2.74755 9.70596 6.34454 
27 3 1 -2.90227 -8.07188 8.15818 
55 7 1 -3.92873 -5.73057 8.25257 
56 7 1 -3.93695 -7.1776 8.77043 
57 7 1 -3.6683 -7.171 10.3152 
59 7 1 -3.891 -8.47975 10.9598 
60 7 1 -3.98896 -8.11016 12.4477 
61 7 1 -1.54146 -8.64599 12.4784 
62 7 1 -2.67 -7.87772 13.1065 
63 7 1 -2.8915 -8.21685 14.6015 
193 7 2 -5.99614 -8.77587 11.2255 
185 7 2 -4.6444 -7.23904 12.6297 
69 8 1 -4.59944 8.60051 8.74309 
215 8 2 -1.33782 8.00892 8.0159 
71 8 1 -3.20432 8.07102 9.123 
205 8 2 -2.62213 8.91761 9.5231 
116 3 2 -3.06893 -9.1374 8.48013 
117 3 2 -1.87584 -7.79326 8.53221 
170 6 2 1.63489 -3.61224 9.55209 
58 7 1 -5.19187 -9.12647 10.555 
181 7 2 -4.94013 -7.58512 8.57306 
182 7 2 -2.64204 -6.83512 10.5398 
183 7 2 -4.31984 -6.41096 10.7763 
184 7 2 -3.06391 -9.18008 10.7756 
186 7 2 -4.50046 -8.94324 12.9621 
187 7 2 -2.44163 -6.80526 12.9703 
188 7 2 -3.91524 -8.40223 14.8764 
189 7 2 -2.34153 -9.07157 14.9593 
190 7 2 -4.95446 -5.33845 8.36157 
191 7 2 -3.72004 -5.5951 7.1748 
192 7 2 -3.22561 -5.10305 8.8287 
194 7 2 -5.11631 -10.2223 10.6497 
195 7 2 -5.52573 -8.99065 9.51069 
196 7 2 -1.66554 -8.91088 11.4117 
197 7 2 -1.32844 -9.56312 13.0604 
198 7 2 -0.629953 -8.02003 12.4673 
203 8 2 -4.82992 9.57255 9.21522 
54 6 1 0.527683 -3.58977 9.41933 
68 8 1 -4.47051 8.8248 7.2028 
200 8 2 -2.26987 8.66692 7.62014 
66 8 1 -2.94349 8.68472 6.739 
204 8 2 -5.41127 7.9339 9.07753 
178 6 2 2.02345 -3.13466 7.81529 
211 8 2 -5.99432 10.292 7.41662 
212 8 2 -4.43199 11.0373 6.85577 
179 6 2 0.626388 -3.55213 6.77348 
67 8 1 -5.07147 10.1357 6.81651 
1 1 1 -0.481718 4.67694 1.27426 
2 1 1 -0.528931 3.2907 1.88871 
3 1 1 -0.574868 3.33082 3.45144 
4 1 1 -1.89217 1.2041 3.39443 
5 1 1 -0.677153 1.91833 3.96265 
6 1 1 -0.705389 1.96162 5.52814 
7 1 1 1.76428 1.7567 5.60908 
8 1 1 0.547483 2.52214 6.08839 
28 4 1 -3.05175 6.05677 -0.338034 
29 4 1 -3.16443 7.54378 0.286749 
30 4 1 -4.07996 7.15848 1.41079 
31 4 1 -4.87123 9.63305 1.69291 
32 4 1 -5.01691 8.17599 2.20458 
33 4 1 -4.70076 8.13961 3.72576 
34 4 1 -2.9285 6.14837 3.38437 
35 4 1 -3.29033 7.5806 3.37419 
156 5 2 -0.29935 4.77507 6.66276 
49 6 1 -1.56209 -0.135542 6.3493 
64 8 1 -3.09258 6.38701 5.55088 
65 8 1 -2.23591 7.57039 5.7939 
73 1 2 -1.39955 2.74342 1.49775 
74 1 2 0.287931 3.84244 3.91065 
75 1 2 -1.46176 3.88057 3.80837 
76 1 2 0.227084 1.37449 3.64766 
77 1 2 -1.54787 2.54487 5.94253 
78 1 2 -0.84898 0.926371 5.8818 
79 1 2 0.681355 3.57649 5.80076 
82 1 2 -1.46854 5.16127 1.17992 
83 1 2 0.129766 5.32224 1.93092 
84 1 2 -0.0703842 4.70729 0.252255 
85 1 2 -2.81764 1.48154 3.92751 
86 1 2 -2.05198 1.34261 2.30678 
87 1 2 -1.74264 0.114666 3.48434 
88 1 2 2.66861 2.00888 6.19283 
89 1 2 1.98046 2.01263 4.55014 
90 1 2 1.67944 0.657895 5.59761 
48 6 1 0.342674 -1.87049 6.29735 
141 4 2 -4.48854 9.83267 0.688325 
210 8 2 -2.5197 5.47394 5.83613 
105 2 2 -1.00875 -0.254806 1.70314 
98 2 2 1.79925 -1.74808 3.48998 
127 4 2 -2.14657 7.75027 0.704084 
128 4 2 -4.73955 6.43916 0.889217 
129 4 2 -3.59437 6.43031 2.07719 
130 4 2 -6.06456 7.82465 1.96873 
132 4 2 -5.22083 7.35405 4.30308 
209 8 2 -3.32803 6.40013 4.47443 
143 4 2 -1.85343 6.14094 3.637 
208 8 2 -4.08028 6.39473 6.02807 
136 4 2 -3.47332 6.02613 -1.33288 
137 4 2 -1.95986 6.12358 -0.376571 
138 4 2 -3.64165 5.59762 0.44766 
103 2 2 -2.64799 -0.535496 1.35348 
199 8 2 -1.18334 7.35288 6.03113 
202 8 2 -5.16471 8.10082 6.7499 
142 4 2 -3.11005 5.57385 2.46846 
144 4 2 -3.44683 5.59685 4.18291 
99 2 2 0.305348 -1.22132 4.28374 
176 6 2 -1.68907 -0.0989194 5.25032 
177 6 2 -0.844933 0.684702 6.53162 
165 6 2 0.743342 -0.848855 6.12384 
13 2 1 -1.644 -0.87757 1.05369 
133 4 2 -3.00916 8.03557 2.41883 
104 2 2 -1.47472 -0.599972 0.00675987 
95 2 2 -1.532 -1.37611 3.615 
50 6 1 -1.16585 -1.53482 6.7121 
36 4 1 -2.30485 8.23333 4.39427 
166 6 2 -1.93961 -2.1764 6.2627 
134 4 2 -1.33781 8.37626 3.89153 
9 1 1 0.422367 2.32755 7.61819 
37 5 1 -0.609766 4.65774 7.71454 
38 5 1 -0.636682 3.21605 8.24143 
39 5 1 -0.350551 3.2162 9.77608 
40 5 1 -1.87266 1.24219 10.0281 
41 5 1 -0.573333 1.91276 10.4326 
42 5 1 -0.691279 2.2754 11.9161 
43 5 1 1.79704 1.76887 11.9408 
44 5 1 0.640548 2.50365 12.5914 
45 5 1 0.432189 2.16231 14.096 
70 8 1 -2.34307 7.5445 7.95695 
51 6 1 -1.29886 -1.80559 8.23524 
52 6 1 1.0344 -2.79924 7.45694 
53 6 1 0.13934 -2.31374 8.63873 
72 8 1 -2.87518 6.76056 9.90131 
171 6 2 0.0721092 -3.8019 10.3974 
80 1 2 0.187244 1.27317 7.91377 
81 1 2 1.44681 2.56629 8.02599 
145 5 2 -1.64935 2.82646 8.02673 
146 5 2 0.684564 3.52759 9.99483 
147 5 2 -0.982873 3.99355 10.2321 
148 5 2 0.272831 1.22999 10.2686 
149 5 2 -1.3478 3.14757 12.0816 
150 5 2 -1.20395 1.44519 12.4324 
151 5 2 0.881116 3.57522 12.4839 
152 5 2 -0.63231 1.88282 14.2467 
153 5 2 1.03566 1.26062 14.3132 