ITEM: TIMESTEP
0
ITEM: NUMBER OF ATOMS
864
ITEM: BOX BOUNDS xy xz yz pp pp pp
-7.3986809999999998e+00 1.3801949964499999e+01 0.0000000000000000e+00
-1.6563260794759998e+01 3.1844058000000000e+01 3.2951249644999998e+00
-1.0800805673800000e+00 1.9489641225400000e+01 -5.4992027947600004e+00
ITEM: ATOMS id mol type xu yu zu 
10 2 1 -0.482001 -4.7607 4.56816 
11 2 1 -0.507195 -3.30818 5.07484 
12 2 1 -0.676923 -3.32896 6.58322 
28 4 1 -3.797 -5.6293 1.89913 
29 4 1 -3.82219 -7.08182 2.40582 
30 4 1 -3.99192 -7.06104 3.91419 
31 4 1 -5.36168 -9.16606 4.03519 
32 4 1 -4.0748 -8.46162 4.5424 
33 4 1 -4.00717 -8.61539 6.05148 
34 4 1 -1.47518 -8.73383 6.17515 
35 4 1 -2.73686 -7.98783 6.68062 
36 4 1 -2.63476 -7.85276 8.18924 
46 6 1 6.148 -4.7607 3.49535 
47 6 1 6.1228 -3.30818 4.00204 
48 6 1 5.95308 -3.32896 5.51041 
64 8 1 2.833 -5.6293 0.826324 
65 8 1 2.80781 -7.08182 1.33301 
66 8 1 2.63808 -7.06104 2.84138 
67 8 1 1.26832 -9.16606 2.96238 
68 8 1 2.5552 -8.46162 3.46959 
69 8 1 2.62283 -8.61539 4.97867 
70 8 1 5.15482 -8.73383 5.10234 
71 8 1 3.89314 -7.98783 5.60781 
72 8 1 3.99524 -7.85276 7.11643 
94 11 1 -5.36168 29.9461 7.24061 
96 11 1 -4.00717 29.3954 9.2569 
97 11 1 -1.47518 29.5138 9.38058 
99 11 1 -2.63476 28.6328 11.3947 
130 15 1 1.26832 29.9461 6.1678 
132 15 1 2.62283 29.3954 8.18409 
133 15 1 5.15483 29.5138 8.30777 
154 18 1 -0.482001 -4.7607 10.979 
172 20 1 -3.797 -5.6293 8.30999 
173 20 1 -3.82219 -7.08182 8.81668 
174 20 1 -3.99192 -7.06104 10.325 
175 20 1 -5.36168 -9.16606 10.446 
176 20 1 -4.0748 -8.46162 10.9533 
177 20 1 -4.00717 -8.61539 12.4623 
178 20 1 -1.47518 -8.73383 12.586 
179 20 1 -2.73686 -7.98783 13.0915 
180 20 1 -2.63476 -7.85276 14.6001 
190 22 1 6.148 -4.7607 9.9062 
208 24 1 2.833 -5.6293 7.23718 
209 24 1 2.80781 -7.08182 7.74387 
210 24 1 2.63808 -7.06104 9.25224 
211 24 1 1.26832 -9.16606 9.37323 
212 24 1 2.5552 -8.46162 9.88045 
213 24 1 2.62283 -8.61539 11.3895 
214 24 1 5.15482 -8.73383 11.5132 
215 24 1 3.89314 -7.98783 12.0187 
216 24 1 3.99524 -7.85276 13.5273 
238 27 1 -5.36168 29.9461 13.6515 
239 27 1 -4.0748 29.2416 14.1587 
240 27 1 -4.00717 29.3954 15.6678 
241 27 1 -1.47518 29.5138 15.7914 
242 27 1 -2.73686 28.7678 16.2969 
243 27 1 -2.63476 28.6328 17.8055 
274 31 1 1.26832 29.9461 12.5787 
275 31 1 2.5552 29.2416 13.0859 
276 31 1 2.62283 29.3954 14.595 
277 31 1 5.15482 29.5138 14.7186 
278 31 1 3.89314 28.7678 15.2241 
279 31 1 3.99524 28.6328 16.7327 
307 2 2 0.18384 -3.97287 5.61397 
308 2 2 -1.58836 -3.89093 6.83514 
309 2 2 0.165097 -3.87577 7.03266 
316 2 2 -1.519 -4.7607 4.19816 
317 2 2 0.036499 -5.6587 4.19816 
318 2 2 0.036499 -3.8627 4.19816 
343 4 2 -4.51323 -7.74652 1.8667 
344 4 2 -3.1499 -6.51423 4.36364 
345 4 2 -4.90336 -6.49907 4.16612 
346 4 2 -3.23044 -9.03466 4.13168 
347 4 2 -4.89803 -8.15242 6.50095 
348 4 2 -4.04477 -9.68474 6.30658 
349 4 2 -2.66928 -6.96819 6.27348 
350 4 2 -3.43379 -7.53098 8.87336 
351 4 2 -1.78507 -8.15749 8.81787 
352 4 2 -4.834 -5.6293 1.52913 
353 4 2 -3.2785 -6.5273 1.52913 
354 4 2 -3.2785 -4.7313 1.52913 
355 4 2 -6.39868 -9.16606 3.66519 
356 4 2 -4.84318 -10.0641 3.66519 
357 4 2 -4.84318 -8.26806 3.66519 
358 4 2 -2.51218 -8.73383 5.80515 
359 4 2 -0.956675 -9.63183 5.80515 
360 4 2 -0.956675 -7.83583 5.80515 
379 6 2 6.81384 -3.97287 4.54116 
380 6 2 5.04164 -3.89093 5.76233 
381 6 2 6.7951 -3.87577 5.95985 
382 6 2 5.02585 -2.50142 6.54934 
388 6 2 7.185 -4.7607 3.12535 
389 6 2 5.6295 -5.6587 3.12535 
390 6 2 5.6295 -3.8627 3.12535 
392 6 2 4.06482 -2.12194 5.2614 
415 8 2 2.11677 -7.74652 0.793888 
416 8 2 3.4801 -6.51423 3.29083 
417 8 2 1.72664 -6.49907 3.09331 
418 8 2 3.39956 -9.03466 3.05888 
419 8 2 1.73197 -8.15242 5.42814 
420 8 2 2.58523 -9.68474 5.23377 
421 8 2 3.96072 -6.96819 5.20067 
422 8 2 3.19621 -7.53098 7.80055 
423 8 2 4.84493 -8.15749 7.74506 
424 8 2 3.87 -5.6293 0.456324 
425 8 2 2.3145 -6.5273 0.456324 
426 8 2 2.3145 -4.7313 0.456324 
427 8 2 2.30532 -9.16606 2.59238 
428 8 2 0.749819 -10.0641 2.59238 
429 8 2 0.749819 -8.26806 2.59238 
430 8 2 6.19182 -8.73383 4.73234 
431 8 2 4.63632 -9.63183 4.73234 
432 8 2 4.63632 -7.83583 4.73234 
473 11 2 -4.04477 30.4647 9.512 
475 11 2 -2.80445 29.7875 10.2932 
476 11 2 -1.78507 28.9375 12.0233 
481 11 2 -6.39868 29.9461 6.87061 
482 11 2 -4.84318 30.8441 6.87061 
484 11 2 -2.51218 29.5138 9.01058 
485 11 2 -0.956675 30.4118 9.01058 
545 15 2 2.58523 30.4647 8.43919 
547 15 2 3.82555 29.7875 9.22037 
548 15 2 4.84493 28.9375 10.9505 
554 15 2 0.749819 30.8441 5.7978 
556 15 2 6.19182 29.5138 7.93777 
557 15 2 4.63632 30.4118 7.93777 
595 18 2 0.18384 -3.97287 12.0248 
604 18 2 -1.519 -4.7607 10.609 
605 18 2 0.036499 -5.6587 10.609 
606 18 2 0.036499 -3.8627 10.609 
631 20 2 -4.51323 -7.74652 8.27755 
632 20 2 -3.1499 -6.51423 10.7745 
633 20 2 -4.90336 -6.49907 10.577 
634 20 2 -3.23044 -9.03466 10.5425 
635 20 2 -4.89803 -8.15242 12.9118 
636 20 2 -4.04477 -9.68474 12.7174 
637 20 2 -2.66928 -6.96819 12.6843 
638 20 2 -3.43379 -7.53098 15.2842 
639 20 2 -1.78507 -8.15749 15.2287 
640 20 2 -4.834 -5.6293 7.93999 
641 20 2 -3.2785 -6.5273 7.93999 
642 20 2 -3.2785 -4.7313 7.93999 
643 20 2 -6.39868 -9.16606 10.076 
644 20 2 -4.84318 -10.0641 10.076 
645 20 2 -4.84318 -8.26806 10.076 
646 20 2 -2.51218 -8.73383 12.216 
647 20 2 -0.956675 -9.63183 12.216 
648 20 2 -0.956675 -7.83583 12.216 
667 22 2 6.81384 -3.97287 10.952 
668 22 2 5.04164 -3.89093 12.1732 
676 22 2 7.185 -4.7607 9.5362 
677 22 2 5.6295 -5.6587 9.5362 
678 22 2 5.6295 -3.8627 9.5362 
703 24 2 2.11677 -7.74652 7.20474 
704 24 2 3.4801 -6.51423 9.70168 
705 24 2 1.72664 -6.49907 9.50417 
706 24 2 3.39956 -9.03466 9.46973 
707 24 2 1.73197 -8.15242 11.839 
708 24 2 2.58523 -9.68474 11.6446 
709 24 2 3.96072 -6.96819 11.6115 
710 24 2 3.19621 -7.53098 14.2114 
711 24 2 4.84493 -8.15749 14.1559 
712 24 2 3.87 -5.6293 6.86718 
713 24 2 2.3145 -6.5273 6.86718 
714 24 2 2.3145 -4.7313 6.86718 
715 24 2 2.30532 -9.16606 9.00323 
716 24 2 0.749819 -10.0641 9.00323 
717 24 2 0.749819 -8.26806 9.00323 
718 24 2 6.19182 -8.73383 11.1432 
719 24 2 4.63632 -9.63183 11.1432 
720 24 2 4.63632 -7.83583 11.1432 
760 27 2 -4.91915 28.6686 14.5694 
761 27 2 -4.04477 30.4647 15.9229 
762 27 2 -4.89803 28.9324 16.1172 
763 27 2 -2.80445 29.7875 16.704 
764 27 2 -1.78507 28.9375 18.4342 
765 27 2 -3.43379 28.311 18.4896 
769 27 2 -6.39868 29.9461 13.2815 
770 27 2 -4.84318 30.8441 13.2815 
771 27 2 -4.84318 29.0481 13.2815 
772 27 2 -2.51218 29.5138 15.4214 
773 27 2 -0.956675 30.4118 15.4214 
774 27 2 -0.956675 28.6158 15.4214 
832 31 2 1.71085 28.6686 13.4966 
833 31 2 2.58523 30.4647 14.8501 
834 31 2 1.73197 28.9324 15.0444 
835 31 2 3.82555 29.7875 15.6312 
836 31 2 4.84493 28.9375 17.3613 
837 31 2 3.19621 28.311 17.4168 
841 31 2 2.30532 29.9461 12.2087 
842 31 2 0.749819 30.8441 12.2087 
843 31 2 0.749819 29.0481 12.2087 
844 31 2 6.19182 29.5138 14.3486 
845 31 2 4.63632 30.4118 14.3486 
846 31 2 4.63632 28.6158 14.3486 
1 1 1 -0.482001 4.7607 1.36273 
2 1 1 -0.507195 3.30818 1.86942 
3 1 1 -0.676923 3.32896 3.37779 
4 1 1 -2.04668 1.22394 3.49878 
5 1 1 -0.759798 1.92838 4.006 
6 1 1 -0.692172 1.77461 5.51507 
7 1 1 1.83982 1.65617 5.63875 
8 1 1 0.578136 2.40217 6.14421 
9 1 1 0.680238 2.53724 7.65284 
13 2 1 -2.04668 -1.22394 6.70421 
14 2 1 -0.759798 -1.92838 7.21143 
15 2 1 -0.692172 -1.77461 8.7205 
16 2 1 1.83983 -1.65617 8.84418 
17 2 1 0.578136 -2.40217 9.34964 
18 2 1 0.680238 -2.53724 10.8583 
19 3 1 -3.797 5.6293 5.10456 
20 3 1 -3.8222 7.08182 5.61125 
21 3 1 -3.99192 7.06104 7.11962 
37 5 1 6.148 4.7607 0.289919 
38 5 1 6.1228 3.30818 0.796607 
39 5 1 5.95308 3.32896 2.30498 
40 5 1 4.58332 1.22394 2.42597 
41 5 1 5.8702 1.92838 2.93319 
42 5 1 5.93783 1.77461 4.44226 
43 5 1 8.46982 1.65617 4.56594 
44 5 1 7.20814 2.40217 5.0714 
45 5 1 7.31024 2.53724 6.58003 
49 6 1 4.58332 -1.22394 5.6314 
50 6 1 5.8702 -1.92838 6.13862 
51 6 1 5.93783 -1.77461 7.64769 
52 6 1 8.46983 -1.65617 7.77137 
53 6 1 7.20814 -2.40217 8.27683 
54 6 1 7.31024 -2.53724 9.78545 
55 7 1 2.833 5.6293 4.03175 
56 7 1 2.80781 7.08182 4.53844 
57 7 1 2.63808 7.06104 6.04681 
145 17 1 -0.482001 4.7607 7.77359 
146 17 1 -0.507195 3.30818 8.28027 
147 17 1 -0.676923 3.32896 9.78864 
148 17 1 -2.04668 1.22394 9.90964 
149 17 1 -0.759798 1.92838 10.4169 
150 17 1 -0.692172 1.77461 11.9259 
151 17 1 1.83983 1.65617 12.0496 
152 17 1 0.578136 2.40217 12.5551 
153 17 1 0.680238 2.53724 14.0637 
155 18 1 -0.507195 -3.30818 11.4857 
156 18 1 -0.676923 -3.32896 12.9941 
157 18 1 -2.04668 -1.22394 13.1151 
158 18 1 -0.759798 -1.92838 13.6223 
159 18 1 -0.692172 -1.77461 15.1314 
160 18 1 1.83983 -1.65617 15.255 
161 18 1 0.578136 -2.40217 15.7605 
162 18 1 0.680238 -2.53724 17.2691 
163 19 1 -3.797 5.6293 11.5154 
181 21 1 6.148 4.7607 6.70078 
182 21 1 6.1228 3.30818 7.20746 
183 21 1 5.95308 3.32896 8.71584 
184 21 1 4.58332 1.22394 8.83683 
185 21 1 5.8702 1.92838 9.34405 
186 21 1 5.93783 1.77461 10.8531 
187 21 1 8.46982 1.65617 10.9768 
188 21 1 7.20814 2.40217 11.4823 
189 21 1 7.31024 2.53724 12.9909 
191 22 1 6.1228 -3.30818 10.4129 
192 22 1 5.95308 -3.32896 11.9213 
193 22 1 4.58332 -1.22394 12.0423 
194 22 1 5.8702 -1.92838 12.5495 
195 22 1 5.93783 -1.77461 14.0585 
196 22 1 8.46982 -1.65617 14.1822 
197 22 1 7.20814 -2.40217 14.6877 
198 22 1 7.31024 -2.53724 16.1963 
199 23 1 2.833 5.6293 10.4426 
200 23 1 2.80781 7.08182 10.9493 
289 1 2 -1.19823 2.64348 1.33029 
290 1 2 0.165097 3.87577 3.82723 
291 1 2 -1.58836 3.89093 3.62972 
292 1 2 0.0845569 1.35534 3.59528 
293 1 2 -1.58303 2.23758 5.96455 
294 1 2 -0.729765 0.705261 5.77017 
295 1 2 0.645721 3.42181 5.73708 
296 1 2 -0.118787 2.85902 8.33695 
297 1 2 1.52993 2.23251 8.28146 
298 1 2 -1.519 4.7607 0.992729 
299 1 2 0.036499 5.6587 0.992729 
300 1 2 0.036499 3.8627 0.992729 
301 1 2 -3.08368 1.22394 3.12878 
302 1 2 -1.52818 2.12194 3.12878 
303 1 2 -1.52818 0.325942 3.12878 
304 1 2 2.87683 1.65617 5.26875 
305 1 2 1.32132 2.55417 5.26875 
306 1 2 1.32132 0.758166 5.26875 
310 2 2 -1.60415 -2.50142 7.62215 
311 2 2 -0.729765 -0.705261 8.9756 
312 2 2 -1.58303 -2.23758 9.16998 
313 2 2 0.510551 -1.38252 9.75678 
314 2 2 1.52993 -2.23251 11.4869 
315 2 2 -0.118787 -2.85902 11.5424 
319 2 2 -3.08368 -1.22394 6.33421 
320 2 2 -1.52818 -2.12194 6.33421 
321 2 2 -1.52818 -0.325942 6.33421 
322 2 2 2.87683 -1.65617 8.47418 
323 2 2 1.32132 -2.55417 8.47418 
324 2 2 1.32132 -0.758166 8.47418 
325 3 2 -3.13116 6.41713 6.15037 
326 3 2 -4.90336 6.49907 7.37155 
327 3 2 -3.1499 6.51423 7.56906 
328 3 2 -4.91915 7.88858 8.15855 
334 3 2 -4.834 5.6293 4.73456 
335 3 2 -3.2785 6.5273 4.73456 
336 3 2 -3.2785 4.7313 4.73456 
361 5 2 5.43177 2.64348 0.257484 
362 5 2 6.7951 3.87577 2.75442 
363 5 2 5.04164 3.89093 2.55691 
364 5 2 6.71456 1.35534 2.52247 
365 5 2 5.04697 2.23758 4.89174 
366 5 2 5.90023 0.705261 4.69736 
367 5 2 7.27572 3.42181 4.66427 
368 5 2 6.51121 2.85902 7.26414 
369 5 2 8.15993 2.23251 7.20865 
370 5 2 7.185 4.7607 -0.0800806 
371 5 2 5.6295 5.6587 -0.0800806 
372 5 2 5.6295 3.8627 -0.0800806 
373 5 2 5.62032 1.22394 2.05597 
374 5 2 4.06482 2.12194 2.05597 
375 5 2 4.06482 0.325942 2.05597 
376 5 2 9.50682 1.65617 4.19594 
377 5 2 7.95132 2.55417 4.19594 
378 5 2 7.95132 0.758166 4.19594 
383 6 2 5.90023 -0.705261 7.90279 
384 6 2 5.04697 -2.23758 8.09717 
385 6 2 7.14055 -1.38252 8.68397 
386 6 2 8.15993 -2.23251 10.4141 
387 6 2 6.51121 -2.85902 10.4696 
391 6 2 5.62032 -1.22394 5.2614 
393 6 2 4.06482 -0.325942 5.2614 
394 6 2 9.50682 -1.65617 7.40137 
395 6 2 7.95133 -2.55417 7.40137 
396 6 2 7.95133 -0.758166 7.40137 
397 7 2 3.49884 6.41713 5.07756 
398 7 2 1.72664 6.49907 6.29874 
399 7 2 3.4801 6.51423 6.49625 
400 7 2 1.71085 7.88858 7.08574 
406 7 2 3.87 5.6293 3.66175 
407 7 2 2.3145 6.5273 3.66175 
408 7 2 2.3145 4.7313 3.66175 
411 7 2 0.749819 8.26806 5.7978 
414 7 2 4.63632 7.83583 7.93777 
577 17 2 -1.19823 2.64348 7.74115 
578 17 2 0.165097 3.87577 10.2381 
579 17 2 -1.58836 3.89093 10.0406 
580 17 2 0.0845569 1.35534 10.0061 
581 17 2 -1.58303 2.23758 12.3754 
582 17 2 -0.729765 0.705261 12.181 
583 17 2 0.645721 3.42181 12.1479 
584 17 2 -0.118787 2.85902 14.7478 
585 17 2 1.52993 2.23251 14.6923 
586 17 2 -1.519 4.7607 7.40359 
587 17 2 0.036499 5.6587 7.40359 
588 17 2 0.036499 3.8627 7.40359 
589 17 2 -3.08368 1.22394 9.53964 
590 17 2 -1.52818 2.12194 9.53964 
591 17 2 -1.52818 0.325942 9.53964 
592 17 2 2.87683 1.65617 11.6796 
593 17 2 1.32132 2.55417 11.6796 
594 17 2 1.32132 0.758166 11.6796 
596 18 2 -1.58836 -3.89093 13.246 
597 18 2 0.165097 -3.87577 13.4435 
598 18 2 -1.60415 -2.50142 14.033 
599 18 2 -0.729765 -0.705261 15.3865 
600 18 2 -1.58303 -2.23758 15.5808 
601 18 2 0.510551 -1.38252 16.1676 
602 18 2 1.52993 -2.23251 17.8977 
603 18 2 -0.118787 -2.85902 17.9532 
607 18 2 -3.08368 -1.22394 12.7451 
608 18 2 -1.52818 -2.12194 12.7451 
609 18 2 -1.52818 -0.325942 12.7451 
610 18 2 2.87683 -1.65617 14.885 
611 18 2 1.32132 -2.55417 14.885 
612 18 2 1.32132 -0.758166 14.885 
613 19 2 -3.13116 6.41713 12.5612 
622 19 2 -4.834 5.6293 11.1454 
623 19 2 -3.2785 6.5273 11.1454 
624 19 2 -3.2785 4.7313 11.1454 
649 21 2 5.43177 2.64348 6.66834 
650 21 2 6.7951 3.87577 9.16528 
651 21 2 5.04164 3.89093 8.96776 
652 21 2 6.71456 1.35534 8.93333 
653 21 2 5.04697 2.23758 11.3026 
654 21 2 5.90023 0.705261 11.1082 
655 21 2 7.27572 3.42181 11.0751 
656 21 2 6.51121 2.85902 13.675 
657 21 2 8.15993 2.23251 13.6195 
658 21 2 7.185 4.7607 6.33078 
659 21 2 5.6295 5.6587 6.33078 
660 21 2 5.6295 3.8627 6.33078 
661 21 2 5.62032 1.22394 8.46683 
662 21 2 4.06482 2.12194 8.46683 
663 21 2 4.06482 0.325942 8.46683 
664 21 2 9.50682 1.65617 10.6068 
665 21 2 7.95132 2.55417 10.6068 
666 21 2 7.95132 0.758166 10.6068 
669 22 2 6.7951 -3.87577 12.3707 
670 22 2 5.02585 -2.50142 12.9602 
671 22 2 5.90023 -0.705261 14.3136 
672 22 2 5.04697 -2.23758 14.508 
673 22 2 7.14055 -1.38252 15.0948 
674 22 2 8.15993 -2.23251 16.8249 
675 22 2 6.51121 -2.85902 16.8804 
679 22 2 5.62032 -1.22394 11.6723 
680 22 2 4.06482 -2.12194 11.6723 
681 22 2 4.06482 -0.325942 11.6723 
682 22 2 9.50682 -1.65617 13.8122 
683 22 2 7.95132 -2.55417 13.8122 
684 22 2 7.95132 -0.758166 13.8122 
685 23 2 3.49884 6.41713 11.4884 
686 23 2 1.72664 6.49907 12.7096 
687 23 2 3.4801 6.51423 12.9071 
694 23 2 3.87 5.6293 10.0726 
695 23 2 2.3145 6.5273 10.0726 
696 23 2 2.3145 4.7313 10.0726 
22 3 1 -5.36168 9.16606 7.24061 
23 3 1 -4.0748 8.46162 7.74783 
24 3 1 -4.00717 8.61539 9.2569 
25 3 1 -1.47518 8.73383 9.38058 
26 3 1 -2.73686 7.98783 9.88605 
27 3 1 -2.63476 7.85276 11.3947 
58 7 1 1.26832 9.16606 6.1678 
59 7 1 2.5552 8.46162 6.67502 
60 7 1 2.62283 8.61539 8.18409 
61 7 1 5.15483 8.73383 8.30777 
62 7 1 3.89314 7.98783 8.81324 
63 7 1 3.99524 7.85276 10.3219 
82 10 1 -0.482001 16.0193 4.56816 
83 10 1 -0.507195 17.4718 5.07484 
84 10 1 -0.676923 17.451 6.58322 
86 10 1 -0.759798 18.8516 7.21143 
100 12 1 -3.797 15.1507 1.89913 
101 12 1 -3.82219 13.6982 2.40582 
102 12 1 -3.99192 13.719 3.91419 
103 12 1 -5.36168 11.6139 4.03519 
104 12 1 -4.0748 12.3184 4.5424 
105 12 1 -4.00717 12.1646 6.05148 
106 12 1 -1.47518 12.0462 6.17515 
107 12 1 -2.73686 12.7922 6.68062 
108 12 1 -2.63476 12.9272 8.18924 
118 14 1 6.148 16.0193 3.49535 
119 14 1 6.1228 17.4718 4.00204 
120 14 1 5.95308 17.451 5.51041 
122 14 1 5.8702 18.8516 6.13862 
125 14 1 7.20814 18.3778 8.27683 
136 16 1 2.833 15.1507 0.826324 
137 16 1 2.80781 13.6982 1.33301 
138 16 1 2.63808 13.719 2.84138 
139 16 1 1.26832 11.6139 2.96238 
140 16 1 2.5552 12.3184 3.46959 
141 16 1 2.62283 12.1646 4.97867 
142 16 1 5.15482 12.0462 5.10234 
143 16 1 3.89314 12.7922 5.60781 
144 16 1 3.99524 12.9272 7.11643 
164 19 1 -3.82219 7.08182 12.0221 
165 19 1 -3.99192 7.06104 13.5305 
166 19 1 -5.36168 9.16606 13.6515 
167 19 1 -4.0748 8.46162 14.1587 
168 19 1 -4.00717 8.61539 15.6678 
169 19 1 -1.47518 8.73383 15.7914 
170 19 1 -2.73686 7.98783 16.2969 
171 19 1 -2.63476 7.85276 17.8055 
201 23 1 2.63808 7.06104 12.4577 
202 23 1 1.26832 9.16606 12.5787 
203 23 1 2.5552 8.46162 13.0859 
204 23 1 2.62283 8.61539 14.595 
205 23 1 5.15482 8.73383 14.7186 
206 23 1 3.89314 7.98783 15.2241 
207 23 1 3.99524 7.85276 16.7327 
226 26 1 -0.482001 16.0193 10.979 
227 26 1 -0.507195 17.4718 11.4857 
244 28 1 -3.797 15.1507 8.30999 
245 28 1 -3.82219 13.6982 8.81668 
246 28 1 -3.99192 13.719 10.325 
247 28 1 -5.36168 11.6139 10.446 
248 28 1 -4.0748 12.3184 10.9533 
249 28 1 -4.00717 12.1646 12.4623 
250 28 1 -1.47518 12.0462 12.586 
251 28 1 -2.73686 12.7922 13.0915 
252 28 1 -2.63476 12.9272 14.6001 
262 30 1 6.148 16.0193 9.9062 
263 30 1 6.1228 17.4718 10.4129 
264 30 1 5.95308 17.451 11.9213 
280 32 1 2.833 15.1507 7.23718 
281 32 1 2.80781 13.6982 7.74387 
282 32 1 2.63808 13.719 9.25224 
283 32 1 1.26832 11.6139 9.37323 
284 32 1 2.5552 12.3184 9.88045 
285 32 1 2.62283 12.1646 11.3895 
286 32 1 5.15482 12.0462 11.5132 
287 32 1 3.89314 12.7922 12.0187 
288 32 1 3.99524 12.9272 13.5273 
329 3 2 -4.04477 9.68474 9.512 
330 3 2 -4.89803 8.15242 9.70638 
331 3 2 -2.80445 9.00748 10.2932 
332 3 2 -1.78507 8.15749 12.0233 
333 3 2 -3.43379 7.53098 12.0788 
337 3 2 -6.39868 9.16606 6.87061 
338 3 2 -4.84318 10.0641 6.87061 
339 3 2 -4.84318 8.26806 6.87061 
340 3 2 -2.51218 8.73383 9.01058 
341 3 2 -0.956675 9.63183 9.01058 
342 3 2 -0.956675 7.83583 9.01058 
401 7 2 2.58523 9.68474 8.43919 
402 7 2 1.73197 8.15242 8.63357 
403 7 2 3.82555 9.00748 9.22037 
404 7 2 4.84493 8.15749 10.9505 
405 7 2 3.19621 7.53098 11.006 
409 7 2 2.30532 9.16606 5.7978 
410 7 2 0.749819 10.0641 5.7978 
412 7 2 6.19182 8.73383 7.93777 
413 7 2 4.63632 9.63183 7.93777 
451 10 2 0.18384 16.8071 5.61397 
452 10 2 -1.58836 16.8891 6.83514 
453 10 2 0.165097 16.9042 7.03266 
454 10 2 -1.60415 18.2786 7.62215 
460 10 2 -1.519 16.0193 4.19816 
461 10 2 0.036499 16.9173 4.19816 
462 10 2 0.036499 15.1213 4.19816 
465 10 2 -1.52818 18.6581 6.33421 
468 10 2 1.32132 18.2258 8.47418 
487 12 2 -4.51323 13.0335 1.8667 
488 12 2 -3.1499 14.2658 4.36364 
489 12 2 -4.90336 14.2809 4.16612 
490 12 2 -3.23044 11.7453 4.13168 
491 12 2 -4.89803 12.6276 6.50095 
492 12 2 -4.04477 11.0953 6.30658 
493 12 2 -2.66928 13.8118 6.27348 
494 12 2 -3.43379 13.249 8.87336 
495 12 2 -1.78507 12.6225 8.81787 
496 12 2 -4.834 15.1507 1.52913 
497 12 2 -3.2785 16.0487 1.52913 
498 12 2 -3.2785 14.2527 1.52913 
499 12 2 -6.39868 11.6139 3.66519 
500 12 2 -4.84318 12.5119 3.66519 
501 12 2 -4.84318 10.7159 3.66519 
502 12 2 -2.51218 12.0462 5.80515 
503 12 2 -0.956675 12.9442 5.80515 
504 12 2 -0.956675 11.1482 5.80515 
523 14 2 6.81384 16.8071 4.54116 
524 14 2 5.04164 16.8891 5.76233 
525 14 2 6.7951 16.9042 5.95985 
526 14 2 5.02585 18.2786 6.54934 
528 14 2 5.04697 18.5424 8.09717 
531 14 2 6.51121 17.921 10.4696 
532 14 2 7.185 16.0193 3.12535 
533 14 2 5.6295 16.9173 3.12535 
534 14 2 5.6295 15.1213 3.12535 
537 14 2 4.06482 18.6581 5.2614 
540 14 2 7.95133 18.2258 7.40137 
559 16 2 2.11677 13.0335 0.793888 
560 16 2 3.4801 14.2658 3.29083 
561 16 2 1.72664 14.2809 3.09331 
562 16 2 3.39956 11.7453 3.05888 
563 16 2 1.73197 12.6276 5.42814 
564 16 2 2.58523 11.0953 5.23377 
565 16 2 3.96072 13.8118 5.20067 
566 16 2 3.19621 13.249 7.80055 
567 16 2 4.84493 12.6225 7.74506 
568 16 2 3.87 15.1507 0.456324 
569 16 2 2.3145 16.0487 0.456324 
570 16 2 2.3145 14.2527 0.456324 
571 16 2 2.30532 11.6139 2.59238 
572 16 2 0.749819 12.5119 2.59238 
573 16 2 0.749819 10.7159 2.59238 
574 16 2 6.19182 12.0462 4.73234 
575 16 2 4.63632 12.9442 4.73234 
576 16 2 4.63632 11.1482 4.73234 
614 19 2 -4.90336 6.49907 13.7824 
615 19 2 -3.1499 6.51423 13.9799 
616 19 2 -4.91915 7.88858 14.5694 
617 19 2 -4.04477 9.68474 15.9229 
618 19 2 -4.89803 8.15242 16.1172 
619 19 2 -2.80445 9.00748 16.704 
620 19 2 -1.78507 8.15749 18.4342 
621 19 2 -3.43379 7.53098 18.4896 
625 19 2 -6.39868 9.16606 13.2815 
626 19 2 -4.84318 10.0641 13.2815 
627 19 2 -4.84318 8.26806 13.2815 
628 19 2 -2.51218 8.73383 15.4214 
629 19 2 -0.956675 9.63183 15.4214 
630 19 2 -0.956675 7.83583 15.4214 
688 23 2 1.71085 7.88858 13.4966 
689 23 2 2.58523 9.68474 14.8501 
690 23 2 1.73197 8.15242 15.0444 
691 23 2 3.82555 9.00748 15.6312 
692 23 2 4.84493 8.15749 17.3613 
693 23 2 3.19621 7.53098 17.4168 
697 23 2 2.30532 9.16606 12.2087 
698 23 2 0.749819 10.0641 12.2087 
699 23 2 0.749819 8.26806 12.2087 
700 23 2 6.19182 8.73383 14.3486 
701 23 2 4.63632 9.63183 14.3486 
702 23 2 4.63632 7.83583 14.3486 
739 26 2 0.18384 16.8071 12.0248 
740 26 2 -1.58836 16.8891 13.246 
741 26 2 0.165097 16.9042 13.4435 
748 26 2 -1.519 16.0193 10.609 
749 26 2 0.036499 16.9173 10.609 
750 26 2 0.036499 15.1213 10.609 
775 28 2 -4.51323 13.0335 8.27755 
776 28 2 -3.1499 14.2658 10.7745 
777 28 2 -4.90336 14.2809 10.577 
778 28 2 -3.23044 11.7453 10.5425 
779 28 2 -4.89803 12.6276 12.9118 
780 28 2 -4.04477 11.0953 12.7174 
781 28 2 -2.66928 13.8118 12.6843 
782 28 2 -3.43379 13.249 15.2842 
783 28 2 -1.78507 12.6225 15.2287 
784 28 2 -4.834 15.1507 7.93999 
785 28 2 -3.2785 16.0487 7.93999 
786 28 2 -3.2785 14.2527 7.93999 
787 28 2 -6.39868 11.6139 10.076 
788 28 2 -4.84318 12.5119 10.076 
789 28 2 -4.84318 10.7159 10.076 
790 28 2 -2.51218 12.0462 12.216 
791 28 2 -0.956675 12.9442 12.216 
792 28 2 -0.956675 11.1482 12.216 
811 30 2 6.81384 16.8071 10.952 
812 30 2 5.04164 16.8891 12.1732 
813 30 2 6.7951 16.9042 12.3707 
820 30 2 7.185 16.0193 9.5362 
821 30 2 5.6295 16.9173 9.5362 
822 30 2 5.6295 15.1213 9.5362 
847 32 2 2.11677 13.0335 7.20474 
848 32 2 3.4801 14.2658 9.70168 
849 32 2 1.72664 14.2809 9.50417 
850 32 2 3.39956 11.7453 9.46973 
851 32 2 1.73197 12.6276 11.839 
852 32 2 2.58523 11.0953 11.6446 
853 32 2 3.96072 13.8118 11.6115 
854 32 2 3.19621 13.249 14.2114 
855 32 2 4.84493 12.6225 14.1559 
856 32 2 3.87 15.1507 6.86718 
857 32 2 2.3145 16.0487 6.86718 
858 32 2 2.3145 14.2527 6.86718 
859 32 2 2.30532 11.6139 9.00323 
860 32 2 0.749819 12.5119 9.00323 
861 32 2 0.749819 10.7159 9.00323 
862 32 2 6.19182 12.0462 11.1432 
863 32 2 4.63632 12.9442 11.1432 
864 32 2 4.63632 11.1482 11.1432 
73 9 1 -0.482001 25.5407 1.36273 
74 9 1 -0.507195 24.0882 1.86942 
75 9 1 -0.676923 24.109 3.37779 
76 9 1 -2.04668 22.0039 3.49878 
77 9 1 -0.759798 22.7084 4.006 
78 9 1 -0.692172 22.5546 5.51507 
79 9 1 1.83982 22.4362 5.63875 
80 9 1 0.578136 23.1822 6.14421 
81 9 1 0.680238 23.3172 7.65284 
85 10 1 -2.04668 19.5561 6.70421 
87 10 1 -0.692172 19.0054 8.7205 
88 10 1 1.83983 19.1238 8.84418 
89 10 1 0.578136 18.3778 9.34964 
90 10 1 0.680238 18.2428 10.8583 
91 11 1 -3.797 26.4093 5.10456 
92 11 1 -3.8222 27.8618 5.61125 
93 11 1 -3.99192 27.841 7.11962 
95 11 1 -4.0748 29.2416 7.74783 
98 11 1 -2.73686 28.7678 9.88605 
109 13 1 6.148 25.5407 0.289919 
110 13 1 6.1228 24.0882 0.796607 
111 13 1 5.95308 24.109 2.30498 
112 13 1 4.58332 22.0039 2.42597 
113 13 1 5.8702 22.7084 2.93319 
114 13 1 5.93783 22.5546 4.44226 
115 13 1 8.46982 22.4362 4.56594 
116 13 1 7.20814 23.1822 5.0714 
117 13 1 7.31024 23.3172 6.58003 
121 14 1 4.58332 19.5561 5.6314 
123 14 1 5.93783 19.0054 7.64769 
124 14 1 8.46983 19.1238 7.77137 
126 14 1 7.31024 18.2428 9.78545 
127 15 1 2.833 26.4093 4.03175 
128 15 1 2.80781 27.8618 4.53844 
129 15 1 2.63808 27.841 6.04681 
131 15 1 2.5552 29.2416 6.67502 
134 15 1 3.89314 28.7678 8.81324 
135 15 1 3.99524 28.6328 10.3219 
217 25 1 -0.482001 25.5407 7.77359 
218 25 1 -0.507195 24.0882 8.28027 
219 25 1 -0.676923 24.109 9.78864 
220 25 1 -2.04668 22.0039 9.90964 
221 25 1 -0.759798 22.7084 10.4169 
222 25 1 -0.692172 22.5546 11.9259 
223 25 1 1.83983 22.4362 12.0496 
224 25 1 0.578136 23.1822 12.5551 
225 25 1 0.680238 23.3172 14.0637 
228 26 1 -0.676923 17.451 12.9941 
229 26 1 -2.04668 19.5561 13.1151 
230 26 1 -0.759798 18.8516 13.6223 
231 26 1 -0.692172 19.0054 15.1314 
232 26 1 1.83983 19.1238 15.255 
233 26 1 0.578136 18.3778 15.7605 
234 26 1 0.680238 18.2428 17.2691 
235 27 1 -3.797 26.4093 11.5154 
236 27 1 -3.82219 27.8618 12.0221 
237 27 1 -3.99192 27.841 13.5305 
253 29 1 6.148 25.5407 6.70078 
254 29 1 6.1228 24.0882 7.20746 
255 29 1 5.95308 24.109 8.71584 
256 29 1 4.58332 22.0039 8.83683 
257 29 1 5.8702 22.7084 9.34405 
258 29 1 5.93783 22.5546 10.8531 
259 29 1 8.46982 22.4362 10.9768 
260 29 1 7.20814 23.1822 11.4823 
261 29 1 7.31024 23.3172 12.9909 
265 30 1 4.58332 19.5561 12.0423 
266 30 1 5.8702 18.8516 12.5495 
267 30 1 5.93783 19.0054 14.0585 
268 30 1 8.46982 19.1238 14.1822 
269 30 1 7.20814 18.3778 14.6877 
270 30 1 7.31024 18.2428 16.1963 
271 31 1 2.833 26.4093 10.4426 
272 31 1 2.80781 27.8618 10.9493 
273 31 1 2.63808 27.841 12.4577 
433 9 2 -1.19823 23.4235 1.33029 
434 9 2 0.165097 24.6558 3.82723 
435 9 2 -1.58836 24.6709 3.62972 
436 9 2 0.0845569 22.1353 3.59528 
437 9 2 -1.58303 23.0176 5.96455 
438 9 2 -0.729765 21.4853 5.77017 
439 9 2 0.645721 24.2018 5.73708 
440 9 2 -0.118787 23.639 8.33695 
441 9 2 1.52993 23.0125 8.28146 
442 9 2 -1.519 25.5407 0.992729 
443 9 2 0.036499 26.4387 0.992729 
444 9 2 0.036499 24.6427 0.992729 
445 9 2 -3.08368 22.0039 3.12878 
446 9 2 -1.52818 22.9019 3.12878 
447 9 2 -1.52818 21.1059 3.12878 
448 9 2 2.87683 22.4362 5.26875 
449 9 2 1.32132 23.3342 5.26875 
450 9 2 1.32132 21.5382 5.26875 
455 10 2 -0.729765 20.0747 8.9756 
456 10 2 -1.58303 18.5424 9.16998 
457 10 2 0.510551 19.3975 9.75678 
458 10 2 1.52993 18.5475 11.4869 
459 10 2 -0.118787 17.921 11.5424 
463 10 2 -3.08368 19.5561 6.33421 
464 10 2 -1.52818 20.4541 6.33421 
466 10 2 2.87683 19.1238 8.47418 
467 10 2 1.32132 20.0218 8.47418 
469 11 2 -3.13116 27.1971 6.15037 
470 11 2 -4.90336 27.2791 7.37155 
471 11 2 -3.1499 27.2942 7.56906 
472 11 2 -4.91915 28.6686 8.15855 
474 11 2 -4.89803 28.9324 9.70638 
477 11 2 -3.43379 28.311 12.0788 
478 11 2 -4.834 26.4093 4.73456 
479 11 2 -3.2785 27.3073 4.73456 
480 11 2 -3.2785 25.5113 4.73456 
483 11 2 -4.84318 29.0481 6.87061 
486 11 2 -0.956675 28.6158 9.01058 
505 13 2 5.43177 23.4235 0.257484 
506 13 2 6.7951 24.6558 2.75442 
507 13 2 5.04164 24.6709 2.55691 
508 13 2 6.71456 22.1353 2.52247 
509 13 2 5.04697 23.0176 4.89174 
510 13 2 5.90023 21.4853 4.69736 
511 13 2 7.27572 24.2018 4.66427 
512 13 2 6.51121 23.639 7.26414 
513 13 2 8.15993 23.0125 7.20865 
514 13 2 7.185 25.5407 -0.0800806 
515 13 2 5.6295 26.4387 -0.0800806 
516 13 2 5.6295 24.6427 -0.0800806 
517 13 2 5.62032 22.0039 2.05597 
518 13 2 4.06482 22.9019 2.05597 
519 13 2 4.06482 21.1059 2.05597 
520 13 2 9.50682 22.4362 4.19594 
521 13 2 7.95132 23.3342 4.19594 
522 13 2 7.95132 21.5382 4.19594 
527 14 2 5.90023 20.0747 7.90279 
529 14 2 7.14055 19.3975 8.68397 
530 14 2 8.15993 18.5475 10.4141 
535 14 2 5.62032 19.5561 5.2614 
536 14 2 4.06482 20.4541 5.2614 
538 14 2 9.50682 19.1238 7.40137 
539 14 2 7.95133 20.0218 7.40137 
541 15 2 3.49884 27.1971 5.07756 
542 15 2 1.72664 27.2791 6.29874 
543 15 2 3.4801 27.2942 6.49625 
544 15 2 1.71085 28.6686 7.08574 
546 15 2 1.73197 28.9324 8.63357 
549 15 2 3.19621 28.311 11.006 
550 15 2 3.87 26.4093 3.66175 
551 15 2 2.3145 27.3073 3.66175 
552 15 2 2.3145 25.5113 3.66175 
553 15 2 2.30532 29.9461 5.7978 
555 15 2 0.749819 29.0481 5.7978 
558 15 2 4.63632 28.6158 7.93777 
721 25 2 -1.19823 23.4235 7.74115 
722 25 2 0.165097 24.6558 10.2381 
723 25 2 -1.58836 24.6709 10.0406 
724 25 2 0.0845569 22.1353 10.0061 
725 25 2 -1.58303 23.0176 12.3754 
726 25 2 -0.729765 21.4853 12.181 
727 25 2 0.645721 24.2018 12.1479 
728 25 2 -0.118787 23.639 14.7478 
729 25 2 1.52993 23.0125 14.6923 
730 25 2 -1.519 25.5407 7.40359 
731 25 2 0.036499 26.4387 7.40359 
732 25 2 0.036499 24.6427 7.40359 
733 25 2 -3.08368 22.0039 9.53964 
734 25 2 -1.52818 22.9019 9.53964 
735 25 2 -1.52818 21.1059 9.53964 
736 25 2 2.87683 22.4362 11.6796 
737 25 2 1.32132 23.3342 11.6796 
738 25 2 1.32132 21.5382 11.6796 
742 26 2 -1.60415 18.2786 14.033 
743 26 2 -0.729765 20.0747 15.3865 
744 26 2 -1.58303 18.5424 15.5808 
745 26 2 0.510551 19.3975 16.1676 
746 26 2 1.52993 18.5475 17.8977 
747 26 2 -0.118787 17.921 17.9532 
751 26 2 -3.08368 19.5561 12.7451 
752 26 2 -1.52818 20.4541 12.7451 
753 26 2 -1.52818 18.6581 12.7451 
754 26 2 2.87683 19.1238 14.885 
755 26 2 1.32132 20.0218 14.885 
756 26 2 1.32132 18.2258 14.885 
757 27 2 -3.13116 27.1971 12.5612 
758 27 2 -4.90336 27.2791 13.7824 
759 27 2 -3.1499 27.2942 13.9799 
766 27 2 -4.834 26.4093 11.1454 
767 27 2 -3.2785 27.3073 11.1454 
768 27 2 -3.2785 25.5113 11.1454 
793 29 2 5.43177 23.4235 6.66834 
794 29 2 6.7951 24.6558 9.16528 
795 29 2 5.04164 24.6709 8.96776 
796 29 2 6.71456 22.1353 8.93333 
797 29 2 5.04697 23.0176 11.3026 
798 29 2 5.90023 21.4853 11.1082 
799 29 2 7.27572 24.2018 11.0751 
800 29 2 6.51121 23.639 13.675 
801 29 2 8.15993 23.0125 13.6195 
802 29 2 7.185 25.5407 6.33078 
803 29 2 5.6295 26.4387 6.33078 
804 29 2 5.6295 24.6427 6.33078 
805 29 2 5.62032 22.0039 8.46683 
806 29 2 4.06482 22.9019 8.46683 
807 29 2 4.06482 21.1059 8.46683 
808 29 2 9.50682 22.4362 10.6068 
809 29 2 7.95132 23.3342 10.6068 
810 29 2 7.95132 21.5382 10.6068 
814 30 2 5.02585 18.2786 12.9602 
815 30 2 5.90023 20.0747 14.3136 
816 30 2 5.04697 18.5424 14.508 
817 30 2 7.14055 19.3975 15.0948 
818 30 2 8.15993 18.5475 16.8249 
819 30 2 6.51121 17.921 16.8804 
823 30 2 5.62032 19.5561 11.6723 
824 30 2 4.06482 20.4541 11.6723 
825 30 2 4.06482 18.6581 11.6723 
826 30 2 9.50682 19.1238 13.8122 
827 30 2 7.95132 20.0218 13.8122 
828 30 2 7.95132 18.2258 13.8122 
829 31 2 3.49884 27.1971 11.4884 
830 31 2 1.72664 27.2791 12.7096 
831 31 2 3.4801 27.2942 12.9071 
838 31 2 3.87 26.4093 10.0726 
839 31 2 2.3145 27.3073 10.0726 
840 31 2 2.3145 25.5113 10.0726 
