ITEM: TIMESTEP
0
ITEM: NUMBER OF ATOMS
108
ITEM: BOX BOUNDS xy xz yz pp pp pp
-6.7356809999999996e+00 7.1719499644999996e+00 0.0000000000000000e+00
-1.4485260794760000e+01 8.9860579999999999e+00 3.2951249644999998e+00
1.9927288707099999e+00 1.2330418230599999e+01 -5.4992027947600004e+00
ITEM: ATOMS id mol type xu yu zu 
10 2 1 -0.482001 -4.7607 3.92707 
11 2 1 -0.507195 -3.30818 4.43376 
12 2 1 -0.676923 -3.32896 5.94213 
22 3 1 -4.69868 7.08806 6.49225 
23 3 1 -3.4118 6.38362 6.99947 
29 4 1 -3.15919 -5.00382 2.29854 
30 4 1 -3.32892 -4.98304 3.80691 
31 4 1 -4.69868 -7.08806 3.9279 
32 4 1 -3.4118 -6.38362 4.43512 
33 4 1 -3.34417 -6.53739 5.94419 
34 4 1 -0.812175 -6.65583 6.06787 
35 4 1 -2.07386 -5.90983 6.57334 
55 2 2 0.18384 -3.97287 4.97288 
56 2 2 -1.58836 -3.89093 6.19406 
57 2 2 0.165097 -3.87577 6.39157 
64 2 2 -1.519 -4.7607 3.55707 
65 2 2 0.036499 -5.6587 3.55707 
66 2 2 0.036499 -3.8627 3.55707 
68 2 2 -1.52818 -2.12194 5.69312 
85 3 2 -5.73568 7.08806 6.12225 
86 3 2 -4.18018 7.98606 6.12225 
92 4 2 -2.4869 -4.43623 4.25635 
93 4 2 -4.24036 -4.42107 4.05884 
94 4 2 -2.56744 -6.95666 4.0244 
95 4 2 -4.23503 -6.07442 6.39367 
96 4 2 -3.38177 -7.60674 6.19929 
97 4 2 -2.00628 -4.89019 6.1662 
103 4 2 -5.73568 -7.08806 3.5579 
104 4 2 -4.18018 -7.98606 3.5579 
105 4 2 -4.18018 -6.19006 3.5579 
106 4 2 -1.84917 -6.65583 5.69787 
107 4 2 -0.293675 -7.55383 5.69787 
108 4 2 -0.293675 -5.75783 5.69787 
24 3 1 -3.34417 6.53739 8.50854 
25 3 1 -0.812175 6.65583 8.63221 
26 3 1 -2.07386 5.90983 9.13768 
27 3 1 -1.97176 5.77476 10.6463 
28 4 1 -3.134 -3.5513 1.79185 
36 4 1 -1.97176 -5.77476 8.08196 
77 3 2 -3.38177 7.60674 8.76364 
78 3 2 -4.23503 6.07442 8.95802 
79 3 2 -2.14145 6.92948 9.54482 
80 3 2 -1.12207 6.07949 11.2749 
81 3 2 -2.77079 5.45298 11.3304 
88 3 2 -1.84917 6.65583 8.26221 
89 3 2 -0.293675 7.55383 8.26221 
90 3 2 -0.293675 5.75783 8.26221 
91 4 2 -3.85023 -5.66852 1.75942 
98 4 2 -2.77079 -5.45298 8.76608 
99 4 2 -1.12207 -6.07949 8.71059 
100 4 2 -4.171 -3.5513 1.42185 
101 4 2 -2.6155 -4.4493 1.42185 
102 4 2 -2.6155 -2.6533 1.42185 
3 1 1 -0.676923 3.32896 3.37779 
4 1 1 -2.04668 1.22394 3.49878 
5 1 1 -0.759798 1.92838 4.006 
6 1 1 -0.692172 1.77461 5.51507 
7 1 1 1.83982 1.65617 5.63875 
8 1 1 0.578136 2.40217 6.14421 
13 2 1 -2.04668 -1.22394 6.06312 
14 2 1 -0.759798 -1.92838 6.57034 
19 3 1 -3.134 3.5513 4.3562 
20 3 1 -3.15919 5.00382 4.86288 
21 3 1 -3.32892 4.98304 6.37125 
38 1 2 0.165097 3.87577 3.82723 
39 1 2 -1.58836 3.89093 3.62972 
40 1 2 0.0845569 1.35534 3.59528 
41 1 2 -1.58303 2.23758 5.96455 
42 1 2 -0.729765 0.705261 5.77017 
43 1 2 0.645721 3.42181 5.73708 
49 1 2 -3.08368 1.22394 3.12878 
50 1 2 -1.52818 2.12194 3.12878 
51 1 2 -1.52818 0.325942 3.12878 
52 1 2 2.87682 1.65617 5.26875 
53 1 2 1.32132 2.55417 5.26875 
54 1 2 1.32132 0.758166 5.26875 
58 2 2 -1.60415 -2.50142 6.98106 
67 2 2 -3.08368 -1.22394 5.69312 
69 2 2 -1.52818 -0.325942 5.69312 
73 3 2 -2.46816 4.33913 5.40201 
74 3 2 -4.24036 4.42107 6.62318 
75 3 2 -2.4869 4.43623 6.8207 
82 3 2 -4.171 3.5513 3.9862 
83 3 2 -2.6155 4.4493 3.9862 
84 3 2 -2.6155 2.6533 3.9862 
87 3 2 -4.18018 6.19006 6.12225 
1 1 1 -0.482001 4.7607 1.36273 
2 1 1 -0.507195 3.30818 1.86942 
9 1 1 0.680238 2.53724 7.65284 
15 2 1 -0.692172 -1.77461 8.07941 
16 2 1 1.83982 -1.65617 8.20309 
17 2 1 0.578136 -2.40217 8.70856 
18 2 1 0.680238 -2.53724 10.2172 
37 1 2 -1.19823 2.64348 1.33029 
44 1 2 -0.118787 2.85902 8.33695 
45 1 2 1.52993 2.23251 8.28146 
46 1 2 -1.519 4.7607 0.992729 
47 1 2 0.036499 5.6587 0.992729 
48 1 2 0.036499 3.8627 0.992729 
59 2 2 -0.729765 -0.705261 8.33451 
60 2 2 -1.58303 -2.23758 8.52889 
61 2 2 0.510551 -1.38252 9.11569 
62 2 2 1.52993 -2.23251 10.8458 
63 2 2 -0.118787 -2.85902 10.9013 
70 2 2 2.87683 -1.65617 7.83309 
71 2 2 1.32132 -2.55417 7.83309 
72 2 2 1.32132 -0.758166 7.83309 
76 3 2 -4.25615 5.81058 7.41019 
