LAMMPS (12 Dec 2018)
units           real
atom_style      full

#lj/class2/coul/long 9.5
pair_style      zero 9.5
# pair_modify     tail yes
bond_style      class2
angle_style     class2
#dihedral_style	class2
#improper_style	class2
#kspace_style    ewald 5.0e-6
neighbor        3.0 bin
neigh_modify    delay 2 every 1
special_bonds   lj/coul 0.0 0.0 1.0

# Equilibrates initial systems.
read_data       Alpha_iPP_1a1b2c.data
  triclinic box = (-7.39868 -11.0641 -2.8427) to (3.87683 11.0641 16.2842) with tilt (0 3.29512 -5.4992)
  1 by 2 by 2 MPI processor grid
  reading atoms ...
  216 atoms
  scanning bonds ...
  4 = max bonds/atom
  scanning angles ...
  6 = max angles/atom
  reading bonds ...
  212 bonds
  reading angles ...
  408 angles
  4 = max # of 1-2 neighbors
  9 = max # of 1-3 neighbors
  13 = max # of special neighbors

pair_coeff      * *

timestep        1
thermo_style    custom step temp pe press vol etotal
thermo          100

dump            1 all custom 100 Alpha_iPP_1a1b2c.lammpstrj id mol type xu yu zu

fix             1 all nve/limit 0.6
fix             2 all temp/rescale 1 300 300 5 0.8
velocity 	all create 300.0 498523
run             1000
Neighbor list info ...
  update every 1 steps, delay 2 steps, check yes
  max neighbors/atom: 2000, page size: 100000
  master list distance cutoff = 12.5
  ghost atom cutoff = 12.5
  binsize = 6.25, bins = 3 5 4
  1 neighbor lists, perpetual/occasional/extra = 1 0 0
  (1) pair zero, perpetual
      attributes: half, newton on
      pair build: half/bin/newton/tri
      stencil: half/bin/3d/newton/tri
      bin: standard
Per MPI rank memory allocation (min/avg/max) = 9.767 | 9.861 | 10.14 Mbytes
Step Temp PotEng Press Volume TotEng 
       0          300    3943.7992    9601.8143    4772.2737    4136.0615 
     100      302.727    142.04764    1594.2663    4772.2737    336.05755 
     200    298.25604    243.77524   -3059.9896    4772.2737    434.91983 
     300    301.60116    190.89483    450.04332    4772.2737    384.18322 
     400    304.02756    149.60864   -2658.0661    4772.2737    344.45205 
     500    297.82024     129.8413    3988.0971    4772.2737     320.7066 
     600    301.24852    211.44446    5094.1707    4772.2737    404.50685 
     700    298.86126     195.8687    -1655.485    4772.2737    387.40116 
     800    301.44729    205.94466   -2077.4413    4772.2737    399.13444 
     900    303.91055    177.18371    1102.2384    4772.2737    371.95213 
    1000    301.35236    183.20721   -927.76603    4772.2737    376.33615 
Loop time of 0.106574 on 4 procs for 1000 steps with 216 atoms

Performance: 810.702 ns/day, 0.030 hours/ns, 9383.124 timesteps/s
85.8% CPU use with 4 MPI tasks x no OpenMP threads

MPI task timing breakdown:
Section |  min time  |  avg time  |  max time  |%varavg| %total
---------------------------------------------------------------
Pair    | 0.00015482 | 0.00016137 | 0.00017557 |   0.0 |  0.15
Bond    | 0.012119   | 0.015319   | 0.017976   |   2.0 | 14.37
Neigh   | 0.016817   | 0.017041   | 0.017258   |   0.2 | 15.99
Comm    | 0.05951    | 0.062071   | 0.064084   |   0.7 | 58.24
Output  | 0.0011014  | 0.0012345  | 0.0016266  |   0.6 |  1.16
Modify  | 0.0032226  | 0.0059536  | 0.0087245  |   3.5 |  5.59
Other   |            | 0.004794   |            |       |  4.50

Nlocal:    54 ave 62 max 45 min
Histogram: 1 1 0 0 0 0 0 0 0 2
Nghost:    1977.25 ave 2053 max 1894 min
Histogram: 1 0 1 0 0 0 0 0 1 1
Neighs:    10042 ave 14356 max 5785 min
Histogram: 2 0 0 0 0 0 0 0 0 2

Total # of neighbors = 40168
Ave neighs/atom = 185.963
Ave special neighs/atom = 5.74074
Neighbor list builds = 25
Dangerous builds = 0
unfix		1
unfix		2

fix		1 all npt temp 300 300 100 aniso 1 1 1000
run		10000
Per MPI rank memory allocation (min/avg/max) = 9.784 | 9.97 | 10.16 Mbytes
Step Temp PotEng Press Volume TotEng 
    1000    301.35236    183.20721   -927.76603    4772.2737    376.33615 
    1100    321.57226    170.40329   -754.85653     4717.613    376.49064 
    1200    299.51949    164.59952   -238.39963    4685.8574    356.55382 
    1300    268.78166    168.62896    2595.6149    4675.1439    340.88418 
    1400    274.45076    177.82564   -2125.3692    4635.4375    353.71404 
    1500    299.38591      170.306    1887.1016    4594.3303    362.17469 
    1600    318.91463    156.80441   -1359.5542    4554.7005    361.18856 
    1700    309.22419    154.69134   -2149.3191    4504.2041    352.86514 
    1800    277.41137    163.03856    -626.0665    4455.3658    340.82434 
    1900    285.66795     158.9395    2688.1688    4359.8532     342.0167 
    2000    304.94058    171.40324    164.99124      4273.63    366.83179 
    2100    320.80796    172.06491   -3930.4785    4199.1768    377.66244 
    2200    314.31862    172.07855   -1361.7388    4084.8336    373.51723 
    2300    287.98476    165.01195   -785.58036    3971.9585    349.57394 
    2400    275.13187    165.92289    1590.4027    3889.2309    342.24779 
    2500    286.21482    168.04559    2601.4234    3835.8771    351.47327 
    2600    267.86888    189.48158   -3153.7754    3776.9809    361.15183 
    2700    328.63193    162.77088   -3053.1784    3742.3804    373.38259 
    2800     310.1797    177.33187    111.77885    3726.1215    376.11802 
    2900    295.45137    174.70921    2122.7219     3698.886    364.05636 
    3000    259.68355    180.44571   -3201.0722     3680.101    346.87018 
    3100      256.954    184.49113    1491.6071    3637.7863    349.16631 
    3200    321.48194    173.77038   -372.66441    3614.8389    379.79985 
    3300    318.70768    181.39975    5503.8177    3579.6441    385.65127 
    3400     295.4565    182.22486   -1201.5899    3563.6414     371.5753 
    3500     300.4134    165.50864   -2714.1868    3529.3809    358.03583 
    3600    293.98824      161.402   -966.31423    3508.2153    349.81147 
    3700    266.53505    173.04785    907.74721    3479.5282    343.86327 
    3800     283.6669    179.23639   -2835.7372    3454.5061    361.03118 
    3900    315.63524    178.54431   -3139.8725    3423.9398    380.82678 
    4000    304.76186    188.54685    1901.3767    3382.3202    383.86085 
    4100    297.63948    180.58382   -517.01413    3346.6995    371.33327 
    4200    274.56864    169.48466   -1351.8239    3300.4725     345.4486 
    4300    275.16374     174.1479   -5130.7933    3260.3772    350.49324 
    4400    294.48683    177.44955     3142.041     3209.596    366.17855 
    4500    307.99033    177.24024    7227.1344    3150.2739    374.62329 
    4600    308.47895    175.73513    2016.2589    3095.8232    373.43132 
    4700     280.8147    186.99594   -4411.5288    3043.0528    366.96283 
    4800    277.68232      171.245   -5871.8091    2978.5509    349.20442 
    4900    263.27599    174.90639    2028.6682    2910.7242    343.63317 
    5000    274.99197    187.75702    2881.4574    2851.1513    363.99227 
    5100    321.74798    173.34574   -185.64374    2792.2231     379.5457 
    5200    313.79882    175.93472    5171.0699     2717.974    377.04028 
    5300    298.24663    177.96572   -878.49615    2664.8946    369.10428 
    5400    272.35168    174.85978   -881.64684    2611.1697    349.40294 
    5500       275.89    158.33265   -6700.5854    2555.5702    335.14342 
    5600    299.65365    171.12001    1231.6489    2496.1095     363.1603 
    5700    292.40969    190.03213     5447.201    2440.4112    377.42995 
    5800    304.44204    182.92876   -1666.5187    2390.9267     378.0378 
    5900    269.22292    195.45528    938.44495     2341.906    367.99329 
    6000    302.77205    168.97473    2617.3467    2301.5548    363.01352 
    6100    297.19112    185.75331    2745.2271    2263.1838    376.21543 
    6200    329.35657    187.89802   -1495.4527    2233.5544    398.97414 
    6300    298.79495    206.31789     9456.956    2191.7938    397.80785 
    6400    325.62981    168.42146    2002.1681    2160.0291     377.1092 
    6500    292.13912    177.08718    999.39493    2129.0947    364.31159 
    6600    288.04052    182.58965    780.38356    2089.4637    367.18737 
    6700    291.48272    191.79615    3021.8438    2060.0732    378.59989 
    6800    308.03908    196.63313   -4611.5771    2033.7394    394.04742 
    6900    326.75924    198.16891   -3181.0469    2002.7701    407.58046 
    7000    314.02428    178.28659    -5361.668    1971.2551    379.53664 
    7100    313.61228     162.4485   -1143.7811    1944.0074     363.4345 
    7200    289.00636     180.1455   -4887.5575    1916.9174     365.3622 
    7300    321.75324    173.81301    4726.3209    1885.1305    380.01634 
    7400    307.64198     193.1205   -5286.2942    1856.1608    390.28029 
    7500    295.71585    192.13523   -8538.7506    1823.0634    381.65187 
    7600    279.38386    177.54326   -4256.8403    1791.6013    356.59316 
    7700    296.67995    168.10663   -101.28308    1752.6283    358.24115 
    7800    275.13941    195.82636    1219.8271    1709.0509     372.1561 
    7900    300.17633    187.37012    5358.2177    1661.4704    379.74538 
    8000    326.38913    171.73728   -4537.3699    1614.4234    380.91164 
    8100    294.64733    195.57295    8507.9713    1562.4613    384.40481 
    8200    288.80895    205.75199    6087.8684    1512.0501    390.84219 
    8300    315.42283    195.56273    1981.3101    1466.9644    397.70907 
    8400    322.34138    175.95284   -58.711328     1429.921     382.5331 
    8500    266.75693    193.67247   -281.22139    1393.7069    364.63009 
    8600    283.15929     186.0226     492.4837    1366.4851    367.49208 
    8700    327.09914    180.05362   -647.13805    1340.0745    389.68301 
    8800    290.26754    212.32185    4042.6347    1319.8784    398.34681 
    8900    316.47417    188.72856    7783.3013    1300.2676    391.54867 
    9000    281.77643    198.36358    335.23058    1286.3263    378.94681 
    9100    311.65671    169.25837    6398.8924    1268.1977     368.9911 
    9200      288.234    179.78609    1544.0209     1254.985    364.50781 
    9300    295.36375    189.89462    321.15033    1244.2397    379.18561 
    9400    333.87033    185.38534   -4064.8965     1226.285    399.35421 
    9500    286.48621    210.52385    3091.2143    1215.8531    394.12546 
    9600    286.06148    187.64495     1128.359    1206.0741    370.97436 
    9700    276.02213    189.18424   -3479.4215    1197.8874    366.07968 
    9800    311.54135    173.55283   -13729.056    1185.6622    373.21163 
    9900    300.86698    185.21979   -6710.2432    1171.6997    378.03766 
   10000    318.69078     184.1228    1162.4961    1156.3205    388.36349 
   10100    314.02949    206.62085   -1742.3187    1137.6842    407.87424 
   10200    300.85318    201.04026   -16309.347    1122.9049    393.84929 
   10300    293.94099    182.82608   -3723.9229    1097.7633    371.20526 
   10400    300.57409    177.24637    3936.3442    1071.6558    369.87654 
   10500    289.58271    196.46331    8285.2863    1044.9851    382.04939 
   10600    343.79236    184.28757   -9943.9392      1015.97    404.61521 
   10700    333.96309    195.33997   -6819.0949    986.60566    409.36828 
   10800    266.99845    200.57318   -3366.9686    955.65163    371.68559 
   10900    260.02912    198.51864   -5838.2004    925.93221    365.16458 
   11000    286.34285    197.11541   -8096.8905    899.77191    380.62514 
WARNING: Bond/angle/dihedral extent > half of periodic box length (../domain.cpp:903)
Loop time of 1.73221 on 4 procs for 10000 steps with 216 atoms

Performance: 498.786 ns/day, 0.048 hours/ns, 5772.984 timesteps/s
80.0% CPU use with 4 MPI tasks x no OpenMP threads

MPI task timing breakdown:
Section |  min time  |  avg time  |  max time  |%varavg| %total
---------------------------------------------------------------
Pair    | 0.14285    | 0.14447    | 0.14723    |   0.5 |  8.34
Bond    | 0.13805    | 0.16701    | 0.19784    |   5.8 |  9.64
Neigh   | 0.2871     | 0.28723    | 0.28752    |   0.0 | 16.58
Comm    | 0.8768     | 0.9062     | 0.93719    |   2.6 | 52.31
Output  | 0.012224   | 0.015539   | 0.025445   |   4.6 |  0.90
Modify  | 0.14084    | 0.15119    | 0.15502    |   1.5 |  8.73
Other   |            | 0.06056    |            |       |  3.50

Nlocal:    54 ave 59 max 46 min
Histogram: 1 0 0 0 0 0 1 1 0 1
Nghost:    7374 ave 7526 max 7210 min
Histogram: 1 0 1 0 0 0 0 1 0 1
Neighs:    52265.2 ave 55986 max 47590 min
Histogram: 1 0 0 0 1 0 0 0 1 1

Total # of neighbors = 209061
Ave neighs/atom = 967.875
Ave special neighs/atom = 5.74074
Neighbor list builds = 234
Dangerous builds = 0

Total wall time: 0:00:01
