ITEM: TIMESTEP
0
ITEM: NUMBER OF ATOMS
108
ITEM: BOX BOUNDS xy xz yz pp pp pp
-7.3986809999999998e+00 7.1719499644999996e+00 0.0000000000000000e+00
-1.6563260794759998e+01 1.1064057999999999e+01 3.2951249644999998e+00
-2.8426993342800002e+00 9.8733566104400001e+00 -5.4992027947600004e+00
ITEM: ATOMS id mol type xu yu zu 
10 2 1 -0.482001 -4.7607 -1.8427 
11 2 1 -0.507195 -3.30818 -1.33601 
12 2 1 -0.676923 -3.32896 0.17236 
14 2 1 -0.759798 -1.92838 0.800571 
19 3 1 -3.797 -5.6293 1.89913 
20 3 1 -3.8222 -7.08182 2.40582 
33 4 1 -4.00717 8.61539 2.84605 
34 4 1 -1.47518 8.73383 2.96972 
55 2 2 0.18384 -3.97287 -0.796888 
56 2 2 -1.58836 -3.89093 0.424287 
57 2 2 0.165097 -3.87577 0.621802 
58 2 2 -1.60415 -2.50142 1.21129 
64 2 2 -1.519 -4.7607 -1.4727 
65 2 2 0.036499 -5.6587 -1.4727 
66 2 2 0.036499 -3.8627 -1.4727 
67 2 2 -3.08368 -1.22394 -0.0766478 
68 2 2 -1.52818 -2.12194 -0.0766478 
71 2 2 1.32132 -2.55417 2.06332 
73 3 2 -4.51323 -7.74652 1.8667 
82 3 2 -4.834 -5.6293 1.52913 
83 3 2 -3.2785 -6.5273 1.52913 
84 3 2 -3.2785 -4.7313 1.52913 
95 4 2 -4.04477 9.68474 3.10115 
104 4 2 -4.84318 10.0641 0.459757 
106 4 2 -2.51218 8.73383 2.59972 
107 4 2 -0.956675 9.63183 2.59972 
21 3 1 -3.99192 -7.06104 3.91419 
22 3 1 -5.36168 -9.16606 4.03519 
23 3 1 -4.0748 -8.46162 4.5424 
24 3 1 -4.00717 -8.61539 6.05148 
25 3 1 -1.47518 -8.73383 6.17515 
26 3 1 -2.73686 -7.98783 6.68062 
27 3 1 -2.63476 -7.85276 8.18924 
36 4 1 -2.63476 7.85276 4.98381 
74 3 2 -3.1499 -6.51423 4.36364 
75 3 2 -4.90336 -6.49907 4.16612 
76 3 2 -3.23044 -9.03466 4.13168 
77 3 2 -4.89803 -8.15242 6.50095 
78 3 2 -4.04477 -9.68474 6.30658 
79 3 2 -2.66928 -6.96819 6.27348 
80 3 2 -3.43379 -7.53098 8.87336 
81 3 2 -1.78507 -8.15749 8.81787 
86 3 2 -4.84318 -10.0641 3.66519 
87 3 2 -4.84318 -8.26806 3.66519 
88 3 2 -2.51218 -8.73383 5.80515 
89 3 2 -0.956675 -9.63183 5.80515 
90 3 2 -0.956675 -7.83583 5.80515 
97 4 2 -2.80445 9.00748 3.88233 
98 4 2 -1.78507 8.15749 5.61244 
99 4 2 -3.43379 7.53098 5.66793 
85 3 2 -6.39868 -9.16606 3.66519 
1 1 1 -0.482001 4.7607 1.36273 
2 1 1 -0.507195 3.30818 1.86942 
3 1 1 -0.676923 3.32896 3.37779 
4 1 1 -2.04668 1.22394 3.49878 
13 2 1 -2.04668 -1.22394 0.293352 
15 2 1 -0.692172 -1.77461 2.30964 
16 2 1 1.83982 -1.65617 2.43332 
17 2 1 0.578136 -2.40217 2.93879 
28 4 1 -3.797 5.6293 -1.30629 
29 4 1 -3.8222 7.08182 -0.799607 
30 4 1 -3.99192 7.06104 0.708765 
31 4 1 -5.36168 9.16606 0.829757 
32 4 1 -4.0748 8.46162 1.33698 
35 4 1 -2.73686 7.98783 3.47519 
37 1 2 -1.19823 2.64348 1.33029 
46 1 2 -1.519 4.7607 0.992729 
47 1 2 0.036499 5.6587 0.992729 
48 1 2 0.036499 3.8627 0.992729 
49 1 2 -3.08368 1.22394 3.12878 
50 1 2 -1.52818 2.12194 3.12878 
51 1 2 -1.52818 0.325942 3.12878 
59 2 2 -0.729765 -0.705261 2.56474 
60 2 2 -1.58303 -2.23758 2.75912 
61 2 2 0.510551 -1.38252 3.34592 
69 2 2 -1.52818 -0.325942 -0.0766478 
70 2 2 2.87683 -1.65617 2.06332 
72 2 2 1.32132 -0.758166 2.06332 
91 4 2 -3.13116 6.41713 -0.260483 
92 4 2 -4.90336 6.49907 0.960692 
93 4 2 -3.1499 6.51423 1.15821 
94 4 2 -4.91915 7.88858 1.7477 
96 4 2 -4.89803 8.15242 3.29553 
100 4 2 -4.834 5.6293 -0.936295 
101 4 2 -3.2785 6.5273 -0.936295 
102 4 2 -3.2785 4.7313 -0.936295 
103 4 2 -6.39868 9.16606 0.459757 
105 4 2 -4.84318 8.26806 0.459757 
108 4 2 -0.956675 7.83583 2.59972 
5 1 1 -0.759798 1.92838 4.006 
6 1 1 -0.692172 1.77461 5.51507 
7 1 1 1.83982 1.65617 5.63875 
8 1 1 0.578136 2.40217 6.14421 
9 1 1 0.680238 2.53724 7.65284 
18 2 1 0.680238 -2.53724 4.44741 
38 1 2 0.165097 3.87577 3.82723 
39 1 2 -1.58836 3.89093 3.62972 
40 1 2 0.0845569 1.35534 3.59528 
41 1 2 -1.58303 2.23758 5.96455 
42 1 2 -0.729765 0.705261 5.77017 
43 1 2 0.645721 3.42181 5.73708 
44 1 2 -0.118787 2.85902 8.33695 
45 1 2 1.52993 2.23251 8.28146 
53 1 2 1.32132 2.55417 5.26875 
54 1 2 1.32132 0.758166 5.26875 
62 2 2 1.52993 -2.23251 5.07603 
63 2 2 -0.118787 -2.85902 5.13152 
52 1 2 2.87682 1.65617 5.26875 
ITEM: TIMESTEP
100
ITEM: NUMBER OF ATOMS
108
ITEM: BOX BOUNDS xy xz yz pp pp pp
-7.3986809999999998e+00 7.1719499644999996e+00 0.0000000000000000e+00
-1.6563260794759998e+01 1.1064057999999999e+01 3.2951249644999998e+00
-2.8426993342800002e+00 9.8733566104400001e+00 -5.4992027947600004e+00
ITEM: ATOMS id mol type xu yu zu 
10 2 1 -0.390312 -5.12317 -1.98664 
11 2 1 -0.444321 -3.69207 -1.18533 
12 2 1 -1.54367 -3.47686 0.363215 
14 2 1 -1.22801 -2.1315 1.2849 
19 3 1 -3.58089 -5.82328 2.03068 
20 3 1 -3.75236 -7.17567 2.55435 
33 4 1 -3.50795 8.88701 2.47846 
74 3 2 -2.34633 -5.79263 3.39821 
55 2 2 0.0203178 -2.9474 -2.01913 
56 2 2 -2.47163 -3.25827 1.37391 
57 2 2 -1.25102 -3.94616 -0.815018 
58 2 2 -1.23757 -2.60561 0.201046 
64 2 2 -0.819504 -4.13835 -2.25357 
65 2 2 -0.105283 -6.22001 -2.38739 
87 3 2 -4.94796 -8.44177 3.14495 
67 2 2 -2.25843 -1.81358 1.04384 
69 2 2 -2.33925 -1.82972 0.922281 
97 4 2 -3.69405 8.98637 3.4289 
73 3 2 -2.72312 -6.84483 2.39962 
82 3 2 -4.21529 -7.05015 2.50662 
83 3 2 -2.76113 -4.66448 1.77105 
84 3 2 -4.21617 -7.04955 2.50553 
66 2 2 -0.815756 -4.13557 -2.25094 
104 4 2 -4.5617 10.2949 1.60654 
85 3 2 -4.95029 -8.44216 3.13129 
31 4 1 -5.60897 9.45216 1.29399 
21 3 1 -3.22839 -6.68742 4.03079 
22 3 1 -5.50611 -9.22728 3.87048 
23 3 1 -4.55654 -7.91998 4.19314 
24 3 1 -4.07299 -8.83317 5.44526 
25 3 1 -1.52698 -8.8291 6.42517 
26 3 1 -2.88269 -7.96845 6.48218 
27 3 1 -2.2873 -7.69564 8.03716 
36 4 1 -2.53585 7.82529 5.10361 
35 4 1 -2.68454 8.38758 3.65208 
75 3 2 -3.9018 -7.15387 4.87653 
76 3 2 -4.43892 -8.99371 4.44981 
77 3 2 -5.21121 -9.69426 5.56326 
78 3 2 -2.99313 -8.09833 5.63689 
79 3 2 -1.87994 -7.54215 6.72797 
80 3 2 -2.96973 -6.87607 7.49422 
81 3 2 -1.25767 -8.11859 8.69359 
63 2 2 0.428425 -3.81208 5.34665 
98 4 2 -2.72777 8.93921 4.66902 
88 3 2 -0.796482 -8.40897 7.28117 
89 3 2 -2.28629 -9.50125 5.57834 
90 3 2 -0.796959 -8.40868 7.28079 
86 3 2 -6.28721 -10.0915 4.48619 
107 4 2 -1.15652 8.79427 4.29096 
18 2 1 0.700773 -3.18807 4.42305 
1 1 1 -0.524231 5.20971 1.67299 
2 1 1 -0.597824 3.69078 1.597 
3 1 1 -0.829786 3.74739 3.1861 
102 4 2 -4.47409 5.34199 -1.13755 
13 2 1 -1.84802 -0.766291 0.839494 
15 2 1 -0.211373 -1.06314 2.289 
16 2 1 1.9098 -1.21188 2.98829 
17 2 1 0.648263 -2.18568 3.11562 
28 4 1 -3.53428 5.42372 -1.72595 
29 4 1 -3.73233 6.58253 -0.744806 
30 4 1 -4.32954 7.20486 0.558734 
38 1 2 -1.21467 4.98819 3.38234 
32 4 1 -4.62138 8.34432 1.55221 
95 4 2 -2.66658 8.16444 1.83503 
37 1 2 -1.45858 4.33893 2.06301 
46 1 2 -0.158237 4.01116 1.48677 
47 1 2 -0.442062 6.47247 1.8837 
48 1 2 -0.151429 3.99273 1.50433 
101 4 2 -2.41176 5.20128 -2.04675 
96 4 2 -4.92428 8.60616 2.76417 
105 4 2 -5.65881 8.27285 1.39716 
59 2 2 0.725523 -0.276023 1.63408 
60 2 2 -1.62278 -1.05279 2.66191 
103 4 2 -5.65659 8.27293 1.39841 
34 4 1 -1.14995 7.97659 3.18489 
70 2 2 1.32 -0.243707 2.993 
72 2 2 1.32064 -0.244715 2.99156 
91 4 2 -4.84013 6.82366 -1.07554 
92 4 2 -5.20336 8.06421 -0.0014972 
93 4 2 -4.0092 5.87486 0.23268 
94 4 2 -4.20827 7.28656 1.2755 
108 4 2 -1.18267 7.57303 2.08274 
100 4 2 -4.47717 5.34464 -1.14527 
68 2 2 -0.614807 -0.242119 0.693492 
106 4 2 -1.43246 7.45493 2.2507 
71 2 2 2.16842 -2.39519 3.48207 
61 2 2 -0.0753904 -1.3769 2.89131 
5 1 1 -1.01871 2.2275 3.77887 
6 1 1 -0.924991 1.45364 5.20373 
7 1 1 1.87288 1.27066 5.21689 
8 1 1 0.581373 1.98478 5.93078 
9 1 1 0.92282 2.36674 7.40217 
99 4 2 -2.01885 6.75759 4.37168 
4 1 1 -2.1785 1.20354 3.65613 
39 1 2 -0.7754 2.58823 3.54145 
40 1 2 -1.14667 1.23827 4.24494 
41 1 2 -1.99717 2.24048 5.15176 
42 1 2 0.0374384 1.57543 5.92318 
43 1 2 1.45731 2.63109 6.26315 
44 1 2 0.849159 3.58754 7.26071 
45 1 2 0.802066 1.17654 7.24547 
53 1 2 1.82475 0.657653 4.10192 
54 1 2 2.13413 1.30785 6.43345 
62 2 2 0.046392 -2.68857 3.68945 
49 1 2 -1.93423 0.0647254 4.00722 
52 1 2 2.13402 1.30606 6.43393 
51 1 2 -1.93253 0.0648928 4.00293 
50 1 2 -2.41643 2.51179 3.56044 
ITEM: TIMESTEP
200
ITEM: NUMBER OF ATOMS
108
ITEM: BOX BOUNDS xy xz yz pp pp pp
-7.3986809999999998e+00 7.1719499644999996e+00 0.0000000000000000e+00
-1.6563260794759998e+01 1.1064057999999999e+01 3.2951249644999998e+00
-2.8426993342800002e+00 9.8733566104400001e+00 -5.4992027947600004e+00
ITEM: ATOMS id mol type xu yu zu 
10 2 1 -0.791915 -5.28776 -1.59856 
11 2 1 -1.18629 -3.85564 -0.973348 
12 2 1 -2.33189 -3.3898 0.377338 
14 2 1 -1.46972 -2.44471 1.39622 
19 3 1 -3.17995 -5.3334 2.1587 
20 3 1 -2.91855 -6.7756 2.613 
31 4 1 -4.91919 9.70549 1.65042 
66 2 2 -0.626278 -4.19181 -1.58491 
55 2 2 -0.450339 -2.92935 -0.800647 
56 2 2 -3.23537 -2.99821 1.28519 
57 2 2 -1.93034 -3.99629 -0.802063 
58 2 2 -1.71371 -2.56193 0.277993 
64 2 2 -0.626541 -4.1912 -1.58655 
65 2 2 -0.62412 -6.35142 -2.06489 
87 3 2 -4.39894 -7.94843 2.90711 
85 3 2 -4.39899 -7.94834 2.90584 
104 4 2 -3.77591 9.86917 2.51416 
97 4 2 -3.60975 8.3846 2.75809 
73 3 2 -2.21488 -5.98549 2.50731 
82 3 2 -3.57594 -6.64853 2.46992 
83 3 2 -2.68302 -4.03643 2.16016 
84 3 2 -3.57866 -6.65012 2.47105 
62 2 2 1.19599 -2.91383 3.48105 
61 2 2 -0.12642 -2.78174 2.73203 
22 3 1 -5.27166 -8.67359 3.37898 
35 4 1 -2.50165 8.31196 3.23317 
21 3 1 -2.92958 -6.27765 4.18277 
36 4 1 -1.97641 7.98509 4.78705 
23 3 1 -4.1954 -7.53482 4.06421 
24 3 1 -4.07108 -8.89422 5.04689 
25 3 1 -1.93612 -9.32361 6.85562 
26 3 1 -2.80033 -8.22831 6.14504 
27 3 1 -2.24105 -7.15457 7.23912 
74 3 2 -2.21628 -5.12655 3.72502 
86 3 2 -6.1963 -9.68598 3.54715 
75 3 2 -3.50398 -7.16295 4.7916 
76 3 2 -4.6405 -8.47897 4.28472 
77 3 2 -5.35114 -9.60403 4.89886 
78 3 2 -2.92808 -8.54535 5.50637 
79 3 2 -1.74321 -8.02436 6.44508 
80 3 2 -2.57373 -6.74392 6.08762 
81 3 2 -1.76905 -7.37875 8.42187 
107 4 2 -1.46866 9.06088 3.30042 
98 4 2 -2.76145 8.39919 4.08488 
88 3 2 -1.41269 -8.68537 7.75159 
89 3 2 -2.72312 -9.98533 5.99627 
90 3 2 -1.40966 -8.68398 7.75033 
1 1 1 -0.397256 5.2149 2.04838 
2 1 1 -1.83202 4.66734 1.60536 
3 1 1 -2.15369 4.07698 3.03363 
102 4 2 -3.87072 5.81883 -2.03187 
13 2 1 -1.71875 -0.873796 1.32426 
15 2 1 -0.524356 -1.64385 2.70577 
39 1 2 -1.43737 2.99293 3.07588 
17 2 1 0.860862 -2.15916 3.15635 
28 4 1 -3.20369 5.32235 -1.23275 
29 4 1 -4.12333 6.60332 -1.25856 
30 4 1 -4.19508 7.36574 0.210378 
69 2 2 -2.551 -1.65809 1.35175 
32 4 1 -4.82509 8.12306 1.36766 
95 4 2 -2.59113 6.95617 3.19212 
37 1 2 -1.28803 5.25693 2.46545 
46 1 2 -0.639582 3.94588 2.07813 
47 1 2 0.309213 6.40365 2.27933 
48 1 2 -0.637902 3.94336 2.08182 
101 4 2 -2.71728 5.02351 -0.127461 
96 4 2 -5.1256 8.05877 2.52362 
105 4 2 -5.2865 8.75537 1.1097 
59 2 2 0.240498 -0.665011 2.79573 
60 2 2 -1.60034 -2.41537 2.44484 
103 4 2 -5.28694 8.75382 1.11115 
34 4 1 -0.86476 7.77839 3.05775 
67 2 2 -2.54063 -1.66125 1.35424 
33 4 1 -3.79246 7.61618 2.7778 
91 4 2 -3.99881 7.27283 -2.23762 
92 4 2 -3.77506 8.34036 1.06066 
93 4 2 -4.60793 6.37799 -0.686571 
94 4 2 -5.21738 7.61642 0.130192 
108 4 2 -0.841872 6.63744 3.20752 
100 4 2 -3.87092 5.81845 -2.03065 
68 2 2 -0.324896 -0.674532 1.21218 
106 4 2 -0.870193 6.63435 3.19056 
71 2 2 2.52481 -2.06356 3.26727 
5 1 1 -1.29151 2.54792 3.3813 
4 1 1 -1.18639 0.785792 3.29316 
40 1 2 -1.3925 1.58041 3.74577 
38 1 2 -2.76642 5.3703 2.83679 
18 2 1 1.35677 -2.43487 4.60154 
6 1 1 -1.14689 1.99202 4.93954 
7 1 1 1.7111 0.654491 5.64153 
8 1 1 0.324122 1.66275 5.89541 
9 1 1 1.13727 1.23572 7.30433 
99 4 2 -1.00819 7.06065 4.74026 
51 1 2 0.0548404 1.19182 3.80321 
63 2 2 0.943211 -1.41877 5.26986 
52 1 2 1.02288 -0.27856 6.35888 
41 1 2 -2.25517 1.36259 4.92203 
42 1 2 0.182137 1.8673 5.24323 
43 1 2 1.24359 1.20739 6.21378 
44 1 2 2.08999 1.99016 7.11581 
45 1 2 0.624702 0.11913 7.81867 
53 1 2 2.40301 0.760501 4.47463 
54 1 2 1.0284 -0.279592 6.36027 
49 1 2 0.0552576 1.19151 3.80208 
16 2 1 1.89993 -0.820597 3.59023 
70 2 2 1.25973 0.196262 3.6388 
72 2 2 1.26069 0.196978 3.63936 
50 1 2 -2.16656 -0.269909 3.16002 
ITEM: TIMESTEP
300
ITEM: NUMBER OF ATOMS
108
ITEM: BOX BOUNDS xy xz yz pp pp pp
-7.3986809999999998e+00 7.1719499644999996e+00 0.0000000000000000e+00
-1.6563260794759998e+01 1.1064057999999999e+01 3.2951249644999998e+00
-2.8426993342800002e+00 9.8733566104400001e+00 -5.4992027947600004e+00
ITEM: ATOMS id mol type xu yu zu 
10 2 1 -1.93169 -5.22632 -1.39999 
11 2 1 -1.59689 -3.98297 -0.544738 
12 2 1 -2.48394 -2.99373 0.641896 
14 2 1 -1.41289 -2.73835 1.88558 
19 3 1 -2.98063 -4.70821 2.28491 
20 3 1 -2.51962 -6.18342 2.30869 
31 4 1 -4.15478 9.37395 1.72528 
66 2 2 -1.28303 -4.30982 -1.40027 
55 2 2 -0.50837 -3.7363 -0.244651 
56 2 2 -3.1616 -2.30914 1.49574 
57 2 2 -2.33625 -3.54016 -0.62315 
58 2 2 -1.56932 -2.59277 0.689645 
64 2 2 -1.28487 -4.30908 -1.4044 
65 2 2 -2.48798 -6.25629 -1.27781 
87 3 2 -3.91355 -7.54075 2.33961 
85 3 2 -3.91209 -7.54287 2.34143 
104 4 2 -2.98209 8.9515 2.45127 
22 3 1 -4.20988 -8.76235 2.42963 
73 3 2 -2.10924 -5.13459 2.33657 
82 3 2 -3.2843 -6.09162 2.20844 
83 3 2 -3.04475 -3.36715 2.50406 
84 3 2 -3.2797 -6.09055 2.20797 
86 3 2 -4.65454 -10.1009 2.35896 
60 2 2 -1.62307 -2.776 2.93866 
21 3 1 -2.52934 -6.1837 3.92548 
88 3 2 -2.02471 -8.92343 7.64972 
23 3 1 -3.69628 -7.47544 3.44048 
24 3 1 -4.00391 -8.70839 4.45547 
25 3 1 -2.42651 -9.44675 6.62514 
26 3 1 -2.95251 -8.18628 5.84679 
27 3 1 -2.32277 -7.23888 7.04713 
74 3 2 -1.8659 -5.02673 3.81632 
90 3 2 -2.02377 -8.92159 7.64856 
75 3 2 -3.19119 -7.03487 4.42533 
76 3 2 -4.6467 -8.06119 3.54314 
77 3 2 -5.02293 -9.4848 3.83027 
78 3 2 -3.02489 -8.48461 5.17144 
79 3 2 -1.94831 -8.20682 6.3332 
80 3 2 -2.38576 -6.79964 5.85608 
81 3 2 -2.16541 -7.56407 8.29119 
89 3 2 -3.06119 -9.9817 5.60246 
1 1 1 -0.488733 4.8626 2.16152 
2 1 1 -2.1367 4.85954 2.65914 
107 4 2 -1.48833 8.288 3.21698 
61 2 2 -0.162793 -2.41777 3.31954 
13 2 1 -1.01294 -1.28185 1.53792 
15 2 1 -0.848829 -1.86876 3.5429 
39 1 2 -1.48468 2.64562 3.17583 
50 1 2 -2.17466 -0.339831 2.59477 
28 4 1 -2.91646 6.75259 -2.24893 
29 4 1 -3.76001 8.06957 -1.97601 
30 4 1 -4.06673 7.66061 -0.405692 
69 2 2 -2.13801 -1.20301 1.33675 
32 4 1 -4.43598 7.89343 1.05759 
97 4 2 -3.16466 7.40332 2.25465 
37 1 2 -0.968834 5.00029 2.94367 
46 1 2 -0.827803 3.65366 2.19573 
47 1 2 0.510377 5.86105 1.96795 
48 1 2 -0.831038 3.65697 2.19368 
101 4 2 -2.51137 6.80655 -0.927516 
96 4 2 -4.87507 7.73208 2.21005 
105 4 2 -4.78892 8.75116 0.99961 
35 4 1 -2.34526 7.30514 3.19521 
38 1 2 -2.43053 5.01424 3.45177 
103 4 2 -4.78838 8.75021 0.999873 
34 4 1 -0.614076 7.1568 3.00935 
67 2 2 -2.14014 -1.20407 1.34353 
33 4 1 -3.80816 7.08149 2.67065 
4 1 1 -1.06107 0.510355 3.05251 
92 4 2 -3.45771 7.82383 0.79707 
93 4 2 -4.56269 7.23764 -1.65738 
94 4 2 -4.85612 8.02426 -0.310046 
108 4 2 0.0327639 6.22367 3.32214 
5 1 1 -1.00176 2.11357 3.52031 
68 2 2 0.298656 -1.61132 2.06089 
106 4 2 0.027963 6.22411 3.32134 
71 2 2 1.78574 -1.15391 3.42377 
40 1 2 -1.38947 1.10472 3.24497 
18 2 1 1.60894 -1.82129 5.16718 
6 1 1 -1.60445 0.746436 4.45138 
7 1 1 1.13797 0.942134 6.24821 
8 1 1 -0.552743 0.757502 5.85102 
9 1 1 -0.173795 1.32691 7.47672 
99 4 2 -0.574669 6.59829 4.72333 
51 1 2 0.0248386 1.20496 3.70983 
63 2 2 1.26315 -1.3342 6.2522 
52 1 2 0.901364 -0.0763802 7.05846 
41 1 2 -2.74383 0.640844 3.73652 
42 1 2 -0.596563 0.464734 5.14551 
43 1 2 0.29628 1.12675 6.43893 
44 1 2 -0.082048 2.48379 6.85171 
45 1 2 0.155784 0.525513 8.39606 
53 1 2 2.26071 1.22548 5.42909 
54 1 2 0.906657 -0.0759424 7.0652 
49 1 2 0.0235429 1.20268 3.70832 
16 2 1 1.57509 0.0825937 4.0515 
70 2 2 1.45446 1.27074 4.19076 
72 2 2 1.45115 1.26943 4.19 
59 2 2 -0.448419 -0.881136 4.49244 
62 2 2 0.893992 -2.12567 4.33006 
98 4 2 -2.72235 7.67093 4.17825 
36 4 1 -1.78332 7.22468 4.74716 
3 1 1 -1.76528 3.75576 3.7058 
102 4 2 -3.55842 7.01674 -3.21859 
17 2 1 0.584077 -1.4888 3.98133 
95 4 2 -3.16125 6.33113 3.66527 
91 4 2 -3.45075 8.53791 -3.03837 
100 4 2 -3.53975 7.01083 -3.22562 
ITEM: TIMESTEP
400
ITEM: NUMBER OF ATOMS
108
ITEM: BOX BOUNDS xy xz yz pp pp pp
-7.3986809999999998e+00 7.1719499644999996e+00 0.0000000000000000e+00
-1.6563260794759998e+01 1.1064057999999999e+01 3.2951249644999998e+00
-2.8426993342800002e+00 9.8733566104400001e+00 -5.4992027947600004e+00
ITEM: ATOMS id mol type xu yu zu 
10 2 1 -2.82037 -4.93367 -0.736652 
11 2 1 -1.67392 -4.44009 0.0921466 
12 2 1 -2.36997 -3.16735 1.19249 
14 2 1 -1.42257 -2.78759 2.48415 
19 3 1 -2.58743 -4.74857 2.86478 
20 3 1 -1.83673 -5.97685 2.24433 
31 4 1 -2.76233 9.53002 1.50787 
66 2 2 -1.98752 -4.40837 -1.32413 
55 2 2 -0.844103 -4.99274 -0.592485 
56 2 2 -2.8022 -2.36731 2.22087 
57 2 2 -2.11321 -3.34304 -0.206812 
58 2 2 -1.51115 -2.88162 1.21545 
64 2 2 -1.98604 -4.40748 -1.3243 
65 2 2 -3.01359 -5.23506 0.598043 
87 3 2 -2.92647 -7.59651 1.91957 
85 3 2 -2.92454 -7.59785 1.92165 
86 3 2 -3.3672 -10.3232 1.74434 
22 3 1 -3.07532 -8.89526 1.93113 
73 3 2 -1.69627 -4.92931 2.73954 
82 3 2 -2.66233 -5.95614 2.09247 
83 3 2 -3.01572 -3.47794 3.17088 
84 3 2 -2.66889 -5.96829 2.08427 
23 3 1 -3.07967 -7.60153 2.93496 
76 3 2 -4.0101 -8.21257 2.74605 
77 3 2 -4.32499 -9.66797 2.93848 
21 3 1 -2.21146 -6.33244 3.86453 
88 3 2 -2.40499 -9.12916 7.2905 
89 3 2 -2.50783 -10.077 4.97943 
24 3 1 -3.4778 -8.89383 3.769 
25 3 1 -2.39811 -9.57488 6.17199 
26 3 1 -3.00465 -8.32612 5.42548 
27 3 1 -2.97556 -7.47671 6.82667 
74 3 2 -1.30088 -5.47283 4.08669 
90 3 2 -2.40097 -9.12864 7.29168 
75 3 2 -3.11381 -7.1089 4.06357 
81 3 2 -2.99973 -7.96482 8.04154 
80 3 2 -2.93298 -6.90915 5.67179 
78 3 2 -2.68257 -8.54212 4.65465 
79 3 2 -2.16646 -8.19247 6.14872 
60 2 2 -1.65614 -3.08676 3.80558 
1 1 1 -0.0198255 4.08865 3.2601 
2 1 1 -1.59958 4.08 2.78697 
107 4 2 -0.943215 7.6147 3.49008 
41 1 2 -2.98016 0.587613 3.09091 
13 2 1 -0.999272 -1.36347 2.00622 
104 4 2 -1.80554 8.65585 2.20824 
68 2 2 0.220889 -1.56578 2.74392 
50 1 2 -2.37181 0.16357 1.43988 
40 1 2 -1.44585 0.376278 3.14161 
29 4 1 -4.18142 8.91887 -2.39179 
30 4 1 -3.65074 8.32532 -0.834538 
69 2 2 -1.98847 -1.26943 1.48074 
32 4 1 -3.57764 8.31609 0.679784 
97 4 2 -2.66691 7.39665 2.02451 
94 4 2 -4.27193 8.83438 -0.473707 
46 1 2 -0.615289 3.18792 2.58225 
93 4 2 -4.55258 8.00555 -1.80481 
48 1 2 -0.614168 3.18844 2.58354 
101 4 2 -2.35637 7.78059 -2.04875 
96 4 2 -3.99601 8.17368 1.82594 
105 4 2 -3.64333 9.37225 0.791332 
35 4 1 -1.96254 6.81883 2.9779 
92 4 2 -2.81954 8.09489 0.278816 
103 4 2 -3.64641 9.37157 0.795843 
4 1 1 -1.42791 0.722804 2.17313 
67 2 2 -1.99195 -1.27023 1.48301 
33 4 1 -3.18497 7.03812 2.03032 
51 1 2 -0.568178 1.62626 2.84863 
49 1 2 -0.570224 1.62504 2.84623 
95 4 2 -2.7155 5.92958 2.98236 
18 2 1 1.36408 -0.987935 5.5503 
6 1 1 -1.9927 0.30602 4.06747 
7 1 1 0.226815 1.21866 6.31205 
8 1 1 -1.36275 0.642234 5.78376 
9 1 1 -1.19257 1.60905 7.20255 
99 4 2 -1.41085 5.94865 5.3451 
106 4 2 -0.12251 5.38366 4.6131 
63 2 2 1.09193 -0.811569 6.79121 
52 1 2 0.0953161 0.281652 7.24175 
100 4 2 -4.3034 7.87845 -3.64185 
42 1 2 -1.46297 0.314109 5.27239 
43 1 2 -0.60804 1.228 6.36552 
44 1 2 -1.36413 2.44456 6.06492 
45 1 2 -0.803606 1.04727 8.33728 
53 1 2 1.14226 1.93439 5.49995 
54 1 2 0.0921986 0.279254 7.24192 
71 2 2 1.16889 -0.547277 3.67735 
16 2 1 0.689068 0.757008 4.13967 
70 2 2 0.218267 1.91969 4.29831 
72 2 2 0.215344 1.91764 4.2994 
59 2 2 -0.588401 -0.785562 4.76239 
62 2 2 0.765343 -1.61275 4.79669 
98 4 2 -2.55157 7.31366 3.69952 
36 4 1 -2.15339 6.80403 4.64128 
3 1 1 -1.49623 3.36615 4.22345 
102 4 2 -4.30846 7.86414 -3.63081 
17 2 1 0.109425 -1.04049 4.53566 
5 1 1 -1.50439 1.71894 3.44397 
91 4 2 -4.62107 9.34026 -3.43551 
61 2 2 -0.292158 -2.33094 4.0142 
15 2 1 -1.10397 -1.86025 4.071 
108 4 2 -0.124287 5.38424 4.61249 
39 1 2 -1.36136 2.08463 4.54 
28 4 1 -3.27288 7.84195 -3.11147 
37 1 2 -0.804237 4.27428 3.66349 
47 1 2 1.01404 4.89622 3.79515 
38 1 2 -2.27763 4.51932 3.6438 
34 4 1 -0.439317 6.32123 3.88132 
ITEM: TIMESTEP
500
ITEM: NUMBER OF ATOMS
108
ITEM: BOX BOUNDS xy xz yz pp pp pp
-7.3986809999999998e+00 7.1719499644999996e+00 0.0000000000000000e+00
-1.6563260794759998e+01 1.1064057999999999e+01 3.2951249644999998e+00
-2.8426993342800002e+00 9.8733566104400001e+00 -5.4992027947600004e+00
ITEM: ATOMS id mol type xu yu zu 
10 2 1 -2.70402 -5.311 -0.401485 
11 2 1 -1.48918 -4.89215 0.419702 
12 2 1 -1.98161 -3.51841 1.48405 
14 2 1 -1.2614 -2.76841 2.76156 
19 3 1 -2.26357 -5.29806 2.93952 
20 3 1 -1.60719 -6.53373 2.26516 
31 4 1 -1.43541 9.40343 1.41318 
66 2 2 -1.71346 -5.00313 -0.897022 
55 2 2 -0.806333 -5.79671 -0.038158 
56 2 2 -2.81399 -2.87796 2.27158 
57 2 2 -1.62746 -3.95328 0.237562 
58 2 2 -1.26299 -3.92202 2.12005 
64 2 2 -1.71318 -5.00529 -0.89719 
65 2 2 -2.99507 -5.6602 0.827931 
87 3 2 -2.48132 -8.16425 1.72515 
85 3 2 -2.47961 -8.16601 1.72555 
86 3 2 -2.39531 -10.9483 1.43395 
22 3 1 -2.45425 -9.5109 1.64702 
73 3 2 -1.41349 -5.49137 2.76726 
82 3 2 -2.33544 -6.53914 2.10068 
83 3 2 -2.42396 -3.96885 3.33451 
84 3 2 -2.33642 -6.53212 2.10913 
23 3 1 -2.5002 -8.3319 2.86838 
76 3 2 -3.22946 -9.12906 2.57307 
77 3 2 -3.23695 -10.5958 2.85666 
105 4 2 -2.41971 9.69469 0.831214 
103 4 2 -2.41882 9.70078 0.832498 
21 3 1 -1.83463 -6.97713 3.85571 
88 3 2 -2.96034 -9.48166 7.51763 
89 3 2 -1.95109 -10.6269 5.53278 
24 3 1 -2.69589 -9.73486 3.78771 
25 3 1 -2.30208 -9.94417 6.62739 
26 3 1 -2.76221 -9.05164 5.43448 
27 3 1 -3.53872 -8.09777 6.51621 
74 3 2 -0.982678 -6.04653 4.08062 
90 3 2 -2.96517 -9.48582 7.51548 
75 3 2 -2.54905 -7.92005 3.98911 
81 3 2 -4.11147 -8.5054 7.60298 
80 3 2 -2.9709 -7.56077 5.49207 
78 3 2 -2.26303 -9.26875 4.87493 
79 3 2 -2.35516 -8.66627 6.41522 
1 1 1 -0.753644 4.02955 2.59375 
2 1 1 -2.13448 4.86745 2.50657 
51 1 2 -1.53028 1.76835 2.31594 
41 1 2 -3.70186 0.555346 3.34396 
13 2 1 -1.64733 -1.26577 2.19531 
104 4 2 -0.760801 8.40466 2.28863 
68 2 2 -0.254903 -1.02126 2.5776 
50 1 2 -3.334 -0.170656 1.5368 
40 1 2 -2.23976 0.596601 2.968 
29 4 1 -4.23224 9.22103 -1.82703 
30 4 1 -3.18221 8.59173 -0.57295 
69 2 2 -2.67067 -1.46646 1.76022 
32 4 1 -2.70565 8.38501 0.974357 
97 4 2 -1.84034 7.35067 2.36882 
94 4 2 -3.61838 8.96607 0.0944004 
46 1 2 -1.68819 3.31048 1.94095 
93 4 2 -4.31733 8.17834 -0.989001 
48 1 2 -1.68569 3.30887 1.93726 
101 4 2 -2.57112 8.26297 -2.27675 
96 4 2 -2.87949 8.50703 2.03977 
95 4 2 -2.67938 6.54522 3.65132 
35 4 1 -1.35203 6.87443 3.541 
92 4 2 -1.91649 8.74506 -0.303792 
49 1 2 -1.53331 1.77062 2.31575 
4 1 1 -2.44023 0.744396 1.99881 
67 2 2 -2.6714 -1.46846 1.75683 
33 4 1 -2.46396 7.41057 2.55796 
5 1 1 -2.39415 1.90992 3.07784 
37 1 2 -1.31137 4.19186 3.14734 
38 1 2 -2.48561 5.11221 3.29008 
18 2 1 1.38694 -0.0180177 5.01734 
6 1 1 -2.49463 0.542533 4.02481 
7 1 1 -0.563481 2.24123 5.86285 
8 1 1 -1.7781 1.12513 5.58967 
9 1 1 -1.76198 2.19048 6.93486 
99 4 2 -1.25056 5.41223 5.59211 
106 4 2 -0.384662 4.48313 4.49323 
63 2 2 0.993018 0.48274 6.06579 
52 1 2 -0.270084 1.1856 6.59157 
100 4 2 -4.61787 8.4185 -3.92513 
42 1 2 -1.9082 0.726114 5.13183 
43 1 2 -1.59808 1.82674 6.40476 
44 1 2 -2.29242 2.89236 5.70183 
45 1 2 -0.940128 1.69741 7.99808 
53 1 2 -0.0766664 3.06069 4.99637 
54 1 2 -0.271248 1.18375 6.58695 
71 2 2 0.834022 0.201744 3.22561 
16 2 1 0.11656 1.42886 3.61118 
70 2 2 -0.520547 2.39804 3.55898 
72 2 2 -0.52509 2.39852 3.55979 
59 2 2 -0.750672 -0.114832 4.63649 
62 2 2 0.746303 -0.810976 4.46697 
98 4 2 -1.70361 7.4953 4.34213 
36 4 1 -1.54113 6.70169 5.21379 
3 1 1 -2.14293 3.67142 3.66851 
102 4 2 -4.61415 8.42468 -3.92386 
17 2 1 -0.0939343 -0.313864 4.40244 
60 2 2 -1.66913 -2.61237 3.98833 
91 4 2 -4.80385 9.51951 -2.89442 
61 2 2 -0.371731 -1.70665 4.02302 
15 2 1 -1.14764 -1.39911 4.13485 
108 4 2 -0.388379 4.48119 4.49355 
39 1 2 -2.01078 2.41944 4.10524 
28 4 1 -3.81699 8.30215 -3.07743 
34 4 1 -0.164238 5.61971 4.19544 
47 1 2 0.422186 3.71619 3.34183 
107 4 2 -0.154655 7.06155 4.02971 
ITEM: TIMESTEP
600
ITEM: NUMBER OF ATOMS
108
ITEM: BOX BOUNDS xy xz yz pp pp pp
-7.3986809999999998e+00 7.1719499644999996e+00 0.0000000000000000e+00
-1.6563260794759998e+01 1.1064057999999999e+01 3.2951249644999998e+00
-2.8426993342800002e+00 9.8733566104400001e+00 -5.4992027947600004e+00
ITEM: ATOMS id mol type xu yu zu 
10 2 1 -0.900371 -5.23209 0.120312 
11 2 1 -0.340543 -4.46071 1.31638 
12 2 1 -1.87303 -3.7096 1.94286 
14 2 1 -1.60798 -2.71944 3.17108 
19 3 1 -1.97279 -5.52545 3.25262 
20 3 1 -0.854168 -6.60479 2.93238 
31 4 1 -1.88362 9.36456 1.02765 
66 2 2 -0.208604 -4.36999 -0.166814 
55 2 2 0.778331 -4.5629 0.932489 
56 2 2 -2.96851 -3.29763 2.57654 
57 2 2 -1.14157 -3.57857 0.789658 
58 2 2 -1.11311 -3.87591 2.9592 
64 2 2 -0.21228 -4.37406 -0.159127 
65 2 2 -1.45883 -5.91271 1.11197 
87 3 2 -1.84034 -8.27703 2.17044 
85 3 2 -1.83416 -8.27755 2.17381 
86 3 2 -2.48853 -10.9098 1.54808 
22 3 1 -2.15483 -9.54197 1.93303 
73 3 2 -1.04873 -5.55766 3.38756 
82 3 2 -1.61392 -6.73335 2.55004 
103 4 2 -2.79371 9.95864 0.644638 
84 3 2 -1.61786 -6.73808 2.55052 
23 3 1 -1.88339 -8.51878 3.30146 
76 3 2 -2.72711 -9.17094 2.99056 
77 3 2 -3.02678 -10.6376 3.06795 
105 4 2 -2.79786 9.95517 0.648565 
21 3 1 -1.41114 -7.13681 4.38748 
88 3 2 -3.23422 -9.84052 7.65874 
89 3 2 -2.0456 -10.8821 5.74412 
24 3 1 -2.4646 -9.82379 4.08633 
25 3 1 -2.58076 -10.3412 6.77671 
26 3 1 -2.66065 -9.17376 5.73301 
27 3 1 -3.61668 -8.31904 6.75512 
74 3 2 -0.93444 -6.02258 4.80075 
90 3 2 -3.2322 -9.84032 7.663 
75 3 2 -2.1486 -8.04347 4.40701 
81 3 2 -4.33017 -8.79765 7.71864 
80 3 2 -2.87844 -7.76376 5.84151 
78 3 2 -2.07981 -9.43392 5.22306 
79 3 2 -2.44203 -8.90557 6.79292 
83 3 2 -2.45739 -4.26491 3.64319 
1 1 1 -1.83705 3.81021 2.02323 
2 1 1 -3.13272 4.75519 2.47458 
51 1 2 -2.59276 1.65913 2.63158 
72 2 2 -1.1481 2.3641 3.06372 
13 2 1 -2.47217 -1.42266 2.47535 
104 4 2 -1.11313 8.16474 1.37932 
68 2 2 -1.18612 -0.906074 2.30552 
50 1 2 -4.00049 -0.611426 3.4399 
70 2 2 -1.14815 2.36361 3.06504 
29 4 1 -4.47316 8.38558 -2.02342 
30 4 1 -3.29562 8.75724 -0.821352 
69 2 2 -3.36418 -1.87132 2.93984 
32 4 1 -3.12366 8.33369 0.719958 
97 4 2 -2.24837 7.34917 1.95072 
94 4 2 -3.7626 8.54401 -0.207954 
46 1 2 -2.96501 3.09284 2.08846 
93 4 2 -3.69936 7.72331 -1.48102 
48 1 2 -2.96453 3.09534 2.08953 
101 4 2 -2.57532 9.4097 -2.358 
96 4 2 -3.26014 8.61064 1.96869 
38 1 2 -2.90327 5.22688 3.21366 
35 4 1 -1.47102 6.76728 2.63828 
92 4 2 -2.38631 9.67372 -0.781815 
49 1 2 -2.59338 1.65683 2.63017 
4 1 1 -3.19103 0.554361 3.21028 
67 2 2 -3.36418 -1.87046 2.9375 
33 4 1 -2.91519 7.38284 2.27788 
47 1 2 -0.477636 3.49532 2.12096 
37 1 2 -2.02954 4.13039 2.72999 
71 2 2 0.0811955 0.192329 2.35188 
16 2 1 -0.43705 1.48209 2.77888 
106 4 2 -0.532636 4.42526 3.38728 
107 4 2 -0.168938 6.80893 2.52995 
34 4 1 -0.280874 5.40373 2.79524 
108 4 2 -0.526862 4.41986 3.38565 
18 2 1 1.08417 0.357483 3.95186 
6 1 1 -2.67419 0.769836 4.84302 
7 1 1 0.0710881 2.47658 5.08841 
8 1 1 -1.22906 1.36823 5.67157 
9 1 1 -0.821479 2.61916 6.77216 
99 4 2 -0.65557 5.53347 4.54512 
95 4 2 -2.82486 6.67751 3.43584 
63 2 2 1.32146 0.718598 5.21192 
52 1 2 0.698267 1.86124 6.07047 
100 4 2 -4.11474 8.12568 -3.96842 
42 1 2 -1.46824 0.888357 5.43746 
43 1 2 -0.775332 2.10974 6.27079 
44 1 2 -1.62467 3.20464 5.6855 
45 1 2 0.21587 2.43493 7.63676 
53 1 2 0.0391184 3.06127 3.90739 
54 1 2 0.69665 1.86239 6.07002 
15 2 1 -1.49139 -1.07876 4.16731 
61 2 2 -0.825515 -1.37249 4.1667 
28 4 1 -3.36625 8.55009 -3.21347 
39 1 2 -2.19657 2.65261 4.28361 
59 2 2 -1.05724 0.265759 4.1239 
62 2 2 0.37997 -0.526043 3.72201 
98 4 2 -1.49556 7.44998 3.50196 
36 4 1 -1.014 6.72041 4.21957 
3 1 1 -2.51107 3.88039 3.70453 
102 4 2 -4.11385 8.12225 -3.96267 
17 2 1 -0.436374 -0.0547933 3.84536 
60 2 2 -2.26801 -2.11522 4.20865 
41 1 2 -3.89999 0.389563 4.84851 
91 4 2 -5.21906 8.23691 -2.96355 
40 1 2 -2.74577 0.773429 3.84742 
5 1 1 -2.93777 2.086 3.78615 
ITEM: TIMESTEP
700
ITEM: NUMBER OF ATOMS
108
ITEM: BOX BOUNDS xy xz yz pp pp pp
-7.3986809999999998e+00 7.1719499644999996e+00 0.0000000000000000e+00
-1.6563260794759998e+01 1.1064057999999999e+01 3.2951249644999998e+00
-2.8426993342800002e+00 9.8733566104400001e+00 -5.4992027947600004e+00
ITEM: ATOMS id mol type xu yu zu 
10 2 1 -0.122145 -5.5322 1.08239 
11 2 1 -0.419841 -4.0321 1.58278 
12 2 1 -1.96176 -3.7932 2.28263 
14 2 1 -1.50784 -2.88327 3.56455 
19 3 1 -1.99166 -5.8028 3.27259 
20 3 1 -1.29661 -7.10669 3.36194 
105 4 2 -2.70354 9.9999 0.422881 
66 2 2 0.316867 -4.48165 0.936355 
55 2 2 0.445357 -3.77118 2.28155 
56 2 2 -2.99749 -3.65258 2.89443 
57 2 2 -1.087 -3.96221 1.17227 
58 2 2 -1.04092 -4.03549 3.32208 
64 2 2 0.366108 -4.46218 0.954195 
65 2 2 -0.708154 -6.59 1.50665 
87 3 2 -2.07096 -8.69523 2.5646 
85 3 2 -2.07445 -8.692 2.56125 
86 3 2 -2.71646 -11.0742 1.58627 
22 3 1 -2.46213 -9.81955 2.14628 
73 3 2 -1.23584 -6.04917 3.75817 
82 3 2 -1.72576 -7.13165 2.78099 
103 4 2 -2.7046 9.99355 0.419802 
84 3 2 -1.72462 -7.12226 2.78707 
23 3 1 -2.71152 -8.62809 3.37393 
76 3 2 -3.3311 -9.41957 2.99271 
77 3 2 -3.56212 -10.8646 3.08504 
21 3 1 -2.43404 -7.21511 4.53792 
88 3 2 -2.30355 -10.401 7.78444 
89 3 2 -1.94963 -11.2031 5.42331 
24 3 1 -2.84011 -10.073 4.04894 
25 3 1 -2.04942 -10.6949 6.63887 
26 3 1 -2.84848 -9.58964 5.83241 
27 3 1 -3.27815 -8.95532 7.27523 
74 3 2 -2.11598 -6.0029 5.03669 
90 3 2 -2.30201 -10.3947 7.78537 
75 3 2 -3.04905 -8.27675 4.54307 
81 3 2 -3.40251 -9.56346 8.42123 
80 3 2 -3.11223 -8.27778 6.19001 
78 3 2 -2.37801 -9.7267 5.10887 
79 3 2 -2.17158 -9.38996 6.69452 
83 3 2 -2.31798 -4.54965 3.97767 
1 1 1 -1.7511 3.65829 1.92341 
2 1 1 -3.11622 4.56928 2.10461 
51 1 2 -2.28926 1.48371 2.49157 
72 2 2 -0.91749 2.3313 2.96437 
13 2 1 -2.22346 -1.82299 2.57966 
104 4 2 -1.39895 8.09941 1.5613 
68 2 2 -0.809486 -1.47204 2.46557 
50 1 2 -3.79886 -0.784659 3.10971 
70 2 2 -0.918144 2.32911 2.96077 
29 4 1 -3.88384 10.0155 -2.49448 
30 4 1 -2.93779 9.27739 -1.31276 
69 2 2 -3.20268 -2.16153 2.98847 
32 4 1 -2.96006 8.50517 0.220685 
97 4 2 -2.60561 7.17372 1.47533 
94 4 2 -3.50368 9.17597 -0.77054 
46 1 2 -2.77379 2.86096 1.80468 
93 4 2 -3.62203 8.66196 -2.36144 
48 1 2 -2.7688 2.8616 1.80648 