ITEM: TIMESTEP
0
ITEM: NUMBER OF ATOMS
216
ITEM: BOX BOUNDS xy xz yz pp pp pp
-7.3986809999999998e+00 7.1719499644999996e+00 0.0000000000000000e+00
-1.6563260794759998e+01 1.1064057999999999e+01 3.2951249644999998e+00
-2.8426993342800002e+00 1.6284213020399999e+01 -5.4992027947600004e+00
ITEM: ATOMS id mol type xu yu zu 
10 2 1 -0.482001 -4.7607 -1.8427 
11 2 1 -0.507195 -3.30818 -1.33601 
12 2 1 -0.676923 -3.32896 0.17236 
13 2 1 -2.04668 -1.22394 0.293352 
14 2 1 -0.759798 -1.92838 0.800571 
15 2 1 -0.692172 -1.77461 2.30964 
16 2 1 1.83982 -1.65617 2.43332 
17 2 1 0.578136 -2.40217 2.93879 
18 2 1 0.680238 -2.53724 4.44741 
19 3 1 -3.797 -5.6293 1.89913 
20 3 1 -3.8222 -7.08182 2.40582 
21 3 1 -3.99192 -7.06104 3.91419 
22 3 1 -5.36168 -9.16606 4.03519 
23 3 1 -4.0748 -8.46162 4.5424 
24 3 1 -4.00717 -8.61539 6.05148 
25 3 1 -1.47518 -8.73383 6.17515 
26 3 1 -2.73686 -7.98783 6.68062 
46 6 1 -0.482001 -4.7607 4.56816 
47 6 1 -0.507195 -3.30818 5.07484 
48 6 1 -0.676923 -3.32896 6.58322 
91 2 2 0.18384 -3.97287 -0.796888 
92 2 2 -1.58836 -3.89093 0.424287 
93 2 2 0.165097 -3.87577 0.621802 
94 2 2 -1.60415 -2.50142 1.21129 
96 2 2 -1.58303 -2.23758 2.75912 
99 2 2 -0.118787 -2.85902 5.13152 
100 2 2 -1.519 -4.7607 -1.4727 
101 2 2 0.036499 -5.6587 -1.4727 
102 2 2 0.036499 -3.8627 -1.4727 
103 2 2 -3.08368 -1.22394 -0.0766478 
104 2 2 -1.52818 -2.12194 -0.0766478 
106 2 2 2.87682 -1.65617 2.06332 
107 2 2 1.32132 -2.55417 2.06332 
109 3 2 -4.51323 -7.74652 1.8667 
110 3 2 -3.1499 -6.51423 4.36364 
111 3 2 -4.90336 -6.49907 4.16612 
112 3 2 -3.23044 -9.03466 4.13168 
113 3 2 -4.89803 -8.15242 6.50095 
114 3 2 -4.04477 -9.68474 6.30658 
115 3 2 -2.66928 -6.96819 6.27348 
118 3 2 -4.834 -5.6293 1.52913 
119 3 2 -3.2785 -6.5273 1.52913 
120 3 2 -3.2785 -4.7313 1.52913 
121 3 2 -6.39868 -9.16606 3.66519 
122 3 2 -4.84318 -10.0641 3.66519 
123 3 2 -4.84318 -8.26806 3.66519 
124 3 2 -2.51218 -8.73383 5.80515 
125 3 2 -0.956675 -9.63183 5.80515 
126 3 2 -0.956675 -7.83583 5.80515 
131 4 2 -4.04477 9.68474 3.10115 
143 4 2 -0.956675 9.63183 2.59972 
163 6 2 0.18384 -3.97287 5.61397 
172 6 2 -1.519 -4.7607 4.19816 
173 6 2 0.036499 -5.6587 4.19816 
174 6 2 0.036499 -3.8627 4.19816 
27 3 1 -2.63476 -7.85276 8.18924 
55 7 1 -3.797 -5.6293 8.30999 
56 7 1 -3.8222 -7.08182 8.81668 
57 7 1 -3.99192 -7.06104 10.325 
59 7 1 -4.0748 -8.46162 10.9533 
60 7 1 -4.00717 -8.61539 12.4623 
61 7 1 -1.47518 -8.73383 12.586 
62 7 1 -2.73686 -7.98783 13.0915 
63 7 1 -2.63476 -7.85276 14.6001 
67 8 1 -5.36168 9.16606 7.24061 
68 8 1 -4.0748 8.46162 7.74783 
69 8 1 -4.00717 8.61539 9.2569 
70 8 1 -1.47518 8.73383 9.38058 
71 8 1 -2.73686 7.98783 9.88605 
72 8 1 -2.63476 7.85276 11.3947 
116 3 2 -3.43379 -7.53098 8.87336 
117 3 2 -1.78507 -8.15749 8.81787 
164 6 2 -1.58836 -3.89093 6.83514 
165 6 2 0.165097 -3.87577 7.03266 
181 7 2 -4.51323 -7.74652 8.27755 
182 7 2 -3.1499 -6.51423 10.7745 
183 7 2 -4.90336 -6.49907 10.577 
184 7 2 -3.23044 -9.03466 10.5425 
186 7 2 -4.04477 -9.68474 12.7174 
187 7 2 -2.66928 -6.96819 12.6843 
188 7 2 -3.43379 -7.53098 15.2842 
189 7 2 -1.78507 -8.15749 15.2287 
190 7 2 -4.834 -5.6293 7.93999 
191 7 2 -3.2785 -6.5273 7.93999 
192 7 2 -3.2785 -4.7313 7.93999 
194 7 2 -4.84318 -10.0641 10.076 
195 7 2 -4.84318 -8.26806 10.076 
196 7 2 -2.51218 -8.73383 12.216 
197 7 2 -0.956675 -9.63183 12.216 
198 7 2 -0.956675 -7.83583 12.216 
203 8 2 -4.04477 9.68474 9.512 
204 8 2 -4.89803 8.15242 9.70638 
205 8 2 -2.80445 9.00748 10.2932 
206 8 2 -1.78507 8.15749 12.0233 
207 8 2 -3.43379 7.53098 12.0788 
212 8 2 -4.84318 10.0641 6.87061 
214 8 2 -2.51218 8.73383 9.01058 
215 8 2 -0.956675 9.63183 9.01058 
216 8 2 -0.956675 7.83583 9.01058 
58 7 1 -5.36168 -9.16606 10.446 
185 7 2 -4.89803 -8.15242 12.9118 
193 7 2 -6.39868 -9.16606 10.076 
211 8 2 -6.39868 9.16606 6.87061 
1 1 1 -0.482001 4.7607 1.36273 
2 1 1 -0.507195 3.30818 1.86942 
3 1 1 -0.676923 3.32896 3.37779 
4 1 1 -2.04668 1.22394 3.49878 
5 1 1 -0.759798 1.92838 4.006 
6 1 1 -0.692172 1.77461 5.51507 
7 1 1 1.83982 1.65617 5.63875 
8 1 1 0.578136 2.40217 6.14421 
28 4 1 -3.797 5.6293 -1.30629 
29 4 1 -3.8222 7.08182 -0.799607 
30 4 1 -3.99192 7.06104 0.708765 
31 4 1 -5.36168 9.16606 0.829757 
32 4 1 -4.0748 8.46162 1.33698 
33 4 1 -4.00717 8.61539 2.84605 
34 4 1 -1.47518 8.73383 2.96972 
35 4 1 -2.73686 7.98783 3.47519 
36 4 1 -2.63476 7.85276 4.98381 
49 6 1 -2.04668 -1.22394 6.70421 
64 8 1 -3.797 5.6293 5.10456 
65 8 1 -3.8222 7.08182 5.61125 
73 1 2 -1.19823 2.64348 1.33029 
74 1 2 0.165097 3.87577 3.82723 
75 1 2 -1.58836 3.89093 3.62972 
76 1 2 0.0845569 1.35534 3.59528 
77 1 2 -1.58303 2.23758 5.96455 
78 1 2 -0.729765 0.705261 5.77017 
79 1 2 0.645721 3.42181 5.73708 
82 1 2 -1.519 4.7607 0.992729 
83 1 2 0.036499 5.6587 0.992729 
84 1 2 0.036499 3.8627 0.992729 
85 1 2 -3.08368 1.22394 3.12878 
86 1 2 -1.52818 2.12194 3.12878 
87 1 2 -1.52818 0.325942 3.12878 
88 1 2 2.87682 1.65617 5.26875 
89 1 2 1.32132 2.55417 5.26875 
90 1 2 1.32132 0.758166 5.26875 
95 2 2 -0.729765 -0.705261 2.56474 
97 2 2 0.510551 -1.38252 3.34592 
98 2 2 1.52993 -2.23251 5.07603 
105 2 2 -1.52818 -0.325942 -0.0766478 
108 2 2 1.32132 -0.758166 2.06332 
127 4 2 -3.13116 6.41713 -0.260483 
128 4 2 -4.90336 6.49907 0.960692 
129 4 2 -3.1499 6.51423 1.15821 
130 4 2 -4.91915 7.88858 1.7477 
132 4 2 -4.89803 8.15242 3.29553 
133 4 2 -2.80445 9.00748 3.88233 
134 4 2 -1.78507 8.15749 5.61244 
135 4 2 -3.43379 7.53098 5.66793 
136 4 2 -4.834 5.6293 -0.936295 
137 4 2 -3.2785 6.5273 -0.936295 
138 4 2 -3.2785 4.7313 -0.936295 
139 4 2 -6.39868 9.16606 0.459757 
140 4 2 -4.84318 10.0641 0.459757 
141 4 2 -4.84318 8.26806 0.459757 
142 4 2 -2.51218 8.73383 2.59972 
144 4 2 -0.956675 7.83583 2.59972 
175 6 2 -3.08368 -1.22394 6.33421 
176 6 2 -1.52818 -2.12194 6.33421 
177 6 2 -1.52818 -0.325942 6.33421 
199 8 2 -3.13116 6.41713 6.15037 
208 8 2 -4.834 5.6293 4.73456 
209 8 2 -3.2785 6.5273 4.73456 
210 8 2 -3.2785 4.7313 4.73456 
9 1 1 0.680238 2.53724 7.65284 
37 5 1 -0.482001 4.7607 7.77359 
38 5 1 -0.507195 3.30818 8.28027 
39 5 1 -0.676923 3.32896 9.78864 
40 5 1 -2.04668 1.22394 9.90964 
41 5 1 -0.759798 1.92838 10.4169 
42 5 1 -0.692172 1.77461 11.9259 
43 5 1 1.83982 1.65617 12.0496 
44 5 1 0.578136 2.40217 12.5551 
45 5 1 0.680238 2.53724 14.0637 
50 6 1 -0.759798 -1.92838 7.21143 
51 6 1 -0.692172 -1.77461 8.7205 
52 6 1 1.83982 -1.65617 8.84418 
53 6 1 0.578136 -2.40217 9.34964 
54 6 1 0.680238 -2.53724 10.8583 
66 8 1 -3.99192 7.06104 7.11962 
80 1 2 -0.118787 2.85902 8.33695 
81 1 2 1.52993 2.23251 8.28146 
145 5 2 -1.19823 2.64348 7.74115 
146 5 2 0.165097 3.87577 10.2381 
147 5 2 -1.58836 3.89093 10.0406 
148 5 2 0.0845569 1.35534 10.0061 
149 5 2 -1.58303 2.23758 12.3754 
150 5 2 -0.729765 0.705261 12.181 
151 5 2 0.645721 3.42181 12.1479 
152 5 2 -0.118787 2.85902 14.7478 
153 5 2 1.52993 2.23251 14.6923 
154 5 2 -1.519 4.7607 7.40359 
155 5 2 0.036499 5.6587 7.40359 
156 5 2 0.036499 3.8627 7.40359 
157 5 2 -3.08368 1.22394 9.53964 
158 5 2 -1.52818 2.12194 9.53964 
159 5 2 -1.52818 0.325942 9.53964 
160 5 2 2.87683 1.65617 11.6796 
161 5 2 1.32132 2.55417 11.6796 
162 5 2 1.32132 0.758166 11.6796 
166 6 2 -1.60415 -2.50142 7.62215 
167 6 2 -0.729765 -0.705261 8.9756 
168 6 2 -1.58303 -2.23758 9.16998 
169 6 2 0.510551 -1.38252 9.75678 
170 6 2 1.52993 -2.23251 11.4869 
171 6 2 -0.118787 -2.85902 11.5424 
179 6 2 1.32132 -2.55417 8.47418 
180 6 2 1.32132 -0.758166 8.47418 
200 8 2 -4.90336 6.49907 7.37155 
201 8 2 -3.1499 6.51423 7.56906 
202 8 2 -4.91915 7.88858 8.15855 
213 8 2 -4.84318 8.26806 6.87061 
178 6 2 2.87682 -1.65617 8.47418 
ITEM: TIMESTEP
100
ITEM: NUMBER OF ATOMS
216
ITEM: BOX BOUNDS xy xz yz pp pp pp
-7.3986809999999998e+00 7.1719499644999996e+00 0.0000000000000000e+00
-1.6563260794759998e+01 1.1064057999999999e+01 3.2951249644999998e+00
-2.8426993342800002e+00 1.6284213020399999e+01 -5.4992027947600004e+00
ITEM: ATOMS id mol type xu yu zu 
10 2 1 -0.87964 -4.50485 -1.60485 
11 2 1 0.0622672 -3.92761 -0.597284 
12 2 1 -1.20086 -3.72664 0.69344 
13 2 1 -2.06858 -1.48812 0.341166 
14 2 1 -1.71017 -2.43192 1.37509 
172 6 2 -0.8614 -3.45311 3.14558 
132 4 2 -3.74598 9.95717 2.4948 
17 2 1 0.359669 -2.07546 3.4651 
18 2 1 0.438923 -2.71564 5.12359 
19 3 1 -3.44184 -4.94492 2.15158 
20 3 1 -3.12716 -6.44381 2.10901 
21 3 1 -3.59961 -6.9457 3.53762 
22 3 1 -5.24457 -9.41075 4.32708 
23 3 1 -4.05689 -8.52505 4.12548 
24 3 1 -4.0024 -8.63965 5.75219 
25 3 1 -1.7644 -8.58031 6.47592 
133 4 2 -2.6851 9.62137 3.64151 
46 6 1 -0.741183 -4.2564 3.79616 
47 6 1 0.00567559 -4.20162 5.06396 
48 6 1 -0.894478 -3.90673 6.48332 
91 2 2 0.308393 -3.48013 -1.65824 
92 2 2 -2.27753 -3.94797 0.420671 
93 2 2 -0.495707 -4.39972 1.74602 
94 2 2 -2.80947 -2.50437 1.64053 
174 6 2 0.0940407 -4.6445 3.16874 
173 6 2 -1.72555 -5.02329 4.37254 
100 2 2 -1.06089 -3.60658 -2.27873 
101 2 2 -1.736 -4.87447 -0.80106 
102 2 2 -0.0463589 -4.92125 -2.18208 
103 2 2 -2.59334 -2.45534 -0.0112324 
114 3 2 -3.41862 -9.58918 6.0649 
140 4 2 -6.17002 9.83621 1.78714 
107 2 2 2.45279 -2.11315 3.91402 
109 3 2 -4.0735 -6.42082 1.59361 
110 3 2 -2.59036 -6.29975 3.99552 
111 3 2 -4.58516 -6.55448 3.97494 
112 3 2 -3.69605 -9.58147 3.72154 
113 3 2 -5.33227 -8.62109 6.01517 
163 6 2 0.680532 -5.12389 4.62071 
99 2 2 -0.854242 -2.67426 4.93141 
118 3 2 -4.51231 -5.04777 1.67332 
119 3 2 -2.65296 -3.97162 2.02545 
120 3 2 -4.32765 -5.41425 2.91065 
121 3 2 -5.11928 -10.0257 3.40889 
122 3 2 -6.27644 -8.87113 4.80349 
123 3 2 -4.51062 -10.1982 4.84158 
124 3 2 -1.14453 -7.66956 6.20371 
125 3 2 -1.94041 -9.5642 5.85224 
95 2 2 0.429517 -1.49675 1.45941 
15 2 1 -0.455007 -1.71076 2.15695 
104 2 2 -0.703612 -1.21521 0.315748 
115 3 2 -2.32539 -6.8578 6.57837 
27 3 1 -2.58752 -7.72939 8.20104 
55 7 1 -3.30765 -5.11371 8.19876 
56 7 1 -3.29179 -6.53812 8.46873 
57 7 1 -3.38646 -6.8793 9.91782 
59 7 1 -3.85426 -8.43352 10.5789 
60 7 1 -4.01494 -8.60969 12.1233 
61 7 1 -1.82309 -8.60189 12.4587 
62 7 1 -2.93796 -7.81267 13.0755 
63 7 1 -2.58484 -8.09553 14.5172 
67 8 1 -5.30074 8.99437 7.36255 
213 8 2 -5.92558 8.16719 6.93234 
69 8 1 -3.12968 8.47343 8.48693 
70 8 1 -1.23826 7.85795 9.65478 
71 8 1 -2.6939 8.24714 9.95941 
72 8 1 -2.77236 7.61308 11.4298 
116 3 2 -3.65466 -8.18681 8.58992 
117 3 2 -1.39145 -7.79932 8.73798 
164 6 2 -1.46523 -4.79265 6.89437 
165 6 2 0.345036 -3.79762 6.76448 
181 7 2 -4.24915 -6.78713 8.15029 
182 7 2 -2.10366 -6.69693 9.71287 
183 7 2 -4.06513 -6.25331 10.5477 
184 7 2 -3.16992 -9.40733 10.4619 
186 7 2 -3.52521 -9.56377 12.5499 
187 7 2 -2.0584 -7.08077 13.119 
188 7 2 -2.46914 -6.95734 14.6217 
189 7 2 -1.63621 -8.73904 14.816 
190 7 2 -4.2317 -5.41039 7.60303 
191 7 2 -2.49066 -4.18259 7.79789 
192 7 2 -4.07205 -5.33431 9.17491 
194 7 2 -5.9944 -8.84625 10.7176 
195 7 2 -4.34632 -10.1313 11.1639 
196 7 2 -1.35999 -7.70789 11.9596 
197 7 2 -2.17477 -9.60522 11.8305 
198 7 2 -1.16695 -8.50094 13.3752 
203 8 2 -2.02699 8.3018 7.91368 
204 8 2 -3.94816 9.47422 8.82346 
205 8 2 -2.65648 9.34505 9.84167 
206 8 2 -2.0372 8.16633 12.0527 
207 8 2 -3.76582 7.21573 11.79 
211 8 2 -5.78162 9.00298 8.31336 
214 8 2 -1.24126 8.81389 9.07971 
215 8 2 -0.929692 7.73852 11.005 
26 3 1 -2.98482 -7.77504 6.77541 
58 7 1 -4.96751 -9.41034 10.4599 
185 7 2 -5.40722 -8.53581 12.133 
193 7 2 -4.41585 -9.50257 9.45277 
212 8 2 -4.82814 9.93728 6.68529 
126 3 2 -1.08861 -8.45629 7.40212 
1 1 1 -1.04604 5.30548 1.60331 
2 1 1 -0.523929 3.89271 1.58727 
3 1 1 -1.19008 3.78644 3.03315 
4 1 1 -2.25152 1.50451 3.53561 
5 1 1 -1.14566 2.34336 3.98544 
6 1 1 -1.41449 2.11934 5.5681 
7 1 1 1.37513 1.39168 5.581 
8 1 1 0.188135 2.16894 6.2669 
28 4 1 -3.82102 5.98737 -1.30212 
29 4 1 -2.92345 6.44658 -0.179659 
30 4 1 -4.40643 7.2068 0.375339 
31 4 1 -5.67359 8.99727 1.09075 
32 4 1 -4.53492 8.13586 1.63714 
33 4 1 -3.30055 8.82378 2.41458 
34 4 1 -1.2805 8.15885 3.33828 
35 4 1 -2.74241 8.47037 3.82362 
36 4 1 -2.47595 7.78115 5.29028 
49 6 1 -1.94924 -0.938 6.53729 
64 8 1 -3.14458 5.21088 4.72025 
65 8 1 -2.87499 6.2956 5.77478 
73 1 2 -1.35253 3.74596 0.891543 
74 1 2 -0.332732 4.82176 3.26886 
75 1 2 -2.38349 3.68696 3.26441 
76 1 2 -0.572605 1.29241 3.86525 
77 1 2 -2.36267 3.20976 5.42465 
78 1 2 -1.7576 1.06989 5.91523 
79 1 2 0.911178 3.02329 6.16028 
82 1 2 -2.131 4.80207 1.60415 
83 1 2 -0.699348 6.2049 2.49495 
84 1 2 -1.35261 5.24885 0.502417 
85 1 2 -2.02973 0.832751 4.40131 
86 1 2 -2.95854 2.25758 2.94089 
87 1 2 -1.66731 0.746296 2.99754 
88 1 2 2.08076 2.13425 6.06198 
89 1 2 1.42909 0.748808 4.46504 
90 1 2 1.45564 0.922444 6.53901 
98 2 2 1.04717 -2.4329 6.20138 
97 2 2 -0.20045 -1.07232 3.50452 
210 8 2 -2.31197 4.49035 4.55896 
105 2 2 -2.82782 -1.09541 1.03792 
108 2 2 1.63266 -1.20854 2.22004 
127 4 2 -2.54001 5.38688 -0.453374 
128 4 2 -5.17085 7.82818 -0.316189 
129 4 2 -4.56527 5.84056 0.532091 
130 4 2 -4.7977 7.10058 1.99287 
96 2 2 -1.35257 -0.681333 2.39088 
200 8 2 -4.98021 7.65035 5.85312 
134 4 2 -1.59026 8.30265 5.90389 
135 4 2 -3.55676 8.17338 5.59195 
136 4 2 -4.03172 5.00174 -0.797414 
137 4 2 -4.64644 6.86279 -1.48952 
138 4 2 -3.00038 5.73561 -2.00785 
139 4 2 -6.12208 7.99067 0.894544 
209 8 2 -3.91415 5.84258 3.81698 
141 4 2 -5.53306 9.19777 0.0365812 
208 8 2 -3.4297 4.3987 5.41612 
144 4 2 -1.35165 7.53333 2.39661 
106 2 2 1.27685 -0.434162 3.5449 
176 6 2 -1.54165 -1.28946 5.29993 
143 4 2 -0.701809 8.08077 4.5636 
199 8 2 -2.1174 5.47274 6.27271 
131 4 2 -2.36733 8.52065 1.80908 
142 4 2 -1.38994 9.10056 2.76062 
16 2 1 1.73561 -1.41656 3.25302 
66 8 1 -4.4023 6.80572 6.41145 
201 8 2 -4.49287 5.42139 6.21079 
9 1 1 0.55865 2.11734 7.74808 
37 5 1 -0.718138 4.93225 8.14133 
38 5 1 0.0992069 3.62551 8.05163 
39 5 1 -0.714929 3.34531 9.36767 
40 5 1 -2.00769 1.23291 10.403 
41 5 1 -0.692609 1.90731 10.2877 
42 5 1 -0.714081 1.97327 11.8514 
43 5 1 1.39087 1.17906 12.3262 
44 5 1 0.568255 2.35617 12.7606 
45 5 1 0.645199 2.17293 14.2484 
50 6 1 -1.5298 -2.50719 7.22421 
51 6 1 -0.303011 -1.43996 7.87568 
52 6 1 1.92798 -1.12944 8.56567 
53 6 1 0.667066 -1.7619 9.08949 
54 6 1 0.516208 -2.3366 10.5616 
68 8 1 -4.41374 7.81692 7.66624 
80 1 2 -0.595873 1.98098 8.11373 
81 1 2 1.63411 1.18427 8.05351 
145 5 2 -0.780981 3.36185 7.40729 
146 5 2 -0.288318 4.49653 9.86641 
147 5 2 -1.85722 3.05949 9.31336 
148 5 2 -0.341417 0.781635 10.128 
149 5 2 -1.88476 2.57152 11.839 
150 5 2 -0.574742 0.949728 12.3967 
151 5 2 1.61752 2.77789 12.8164 
152 5 2 1.24198 3.18414 14.2918 
153 5 2 1.02386 1.16905 14.7415 
154 5 2 -1.74362 4.28746 8.11053 
155 5 2 -0.530698 5.93768 8.99754 
156 5 2 -0.917722 4.85974 7.03848 
157 5 2 -1.48453 0.433644 11.2066 
158 5 2 -2.6738 2.25955 10.34 
159 5 2 -1.71412 0.43262 9.66923 
160 5 2 2.27335 1.76374 11.9501 
161 5 2 0.704634 0.247266 11.7363 
162 5 2 1.86316 1.08307 13.3853 
166 6 2 -2.50784 -2.66957 7.70847 
167 6 2 0.62089 -1.19278 7.06049 
168 6 2 -1.39428 -0.611382 8.26639 
169 6 2 0.410077 -0.653946 9.40464 
170 6 2 0.00398555 -1.33965 10.9202 
171 6 2 -0.0929905 -3.29351 10.6154 
179 6 2 2.85511 -1.70725 8.07198 
180 6 2 1.29871 -0.355964 8.0401 
202 8 2 -5.3295 7.48887 8.23689 
177 6 2 -1.79914 0.140814 7.00047 
178 6 2 1.83513 -0.0524586 8.88829 
216 8 2 -1.31627 7.21479 8.74112 
175 6 2 -2.87639 -1.04107 7.10941 
ITEM: TIMESTEP
200
ITEM: NUMBER OF ATOMS
216
ITEM: BOX BOUNDS xy xz yz pp pp pp
-7.3986809999999998e+00 7.1719499644999996e+00 0.0000000000000000e+00
-1.6563260794759998e+01 1.1064057999999999e+01 3.2951249644999998e+00
-2.8426993342800002e+00 1.6284213020399999e+01 -5.4992027947600004e+00
ITEM: ATOMS id mol type xu yu zu 
10 2 1 -1.31877 -3.81119 -0.95611 
11 2 1 -0.339344 -3.99385 0.236497 
12 2 1 -1.60416 -3.83008 1.37591 
13 2 1 -1.71122 -1.68146 0.496953 
14 2 1 -1.91689 -2.4599 1.88625 
172 6 2 -0.348393 -3.98346 3.48873 
132 4 2 -3.90387 9.61606 2.24798 
17 2 1 -0.367853 -2.21424 3.84602 
18 2 1 0.630847 -2.7391 5.32453 
19 3 1 -3.75142 -4.98736 1.77675 
20 3 1 -2.83105 -6.07929 2.22296 
21 3 1 -3.69688 -6.36759 3.51544 
22 3 1 -5.05289 -8.62051 3.95332 
23 3 1 -3.74557 -7.91501 4.02697 
24 3 1 -3.73033 -8.26396 5.58747 
25 3 1 -1.58081 -8.67986 6.64626 
97 2 2 -1.48979 -2.73204 3.65862 
46 6 1 -0.601578 -4.51582 4.35795 
47 6 1 0.345412 -4.30712 5.51713 
48 6 1 -0.926945 -4.03265 6.68299 
91 2 2 0.138499 -3.15258 -0.45618 
92 2 2 -2.60274 -3.54931 0.79812 
93 2 2 -1.09431 -4.74067 2.3424 
94 2 2 -2.70154 -2.68479 2.65226 
174 6 2 -0.286884 -5.32447 3.67142 
173 6 2 -1.90209 -4.56637 4.9711 
100 2 2 -1.24708 -2.64431 -1.17139 
101 2 2 -2.20317 -4.54078 -0.416792 
102 2 2 -0.492201 -3.96908 -1.64683 
103 2 2 -2.3231 -2.3383 -0.185482 
114 3 2 -3.37267 -9.32402 5.80806 
212 8 2 -3.75756 8.99068 5.40649 
115 3 2 -1.87379 -6.79505 6.27571 
109 3 2 -3.40968 -6.6874 1.53953 
110 3 2 -3.21547 -5.38585 4.14171 
111 3 2 -4.8623 -6.52581 3.52297 
112 3 2 -3.5218 -8.82669 3.41737 
113 3 2 -5.0291 -7.8549 5.72604 
163 6 2 0.791289 -5.17948 4.77945 
99 2 2 -0.53893 -2.82781 5.40077 
118 3 2 -3.98256 -5.57053 0.803505 
119 3 2 -3.53132 -3.72335 1.96797 
120 3 2 -4.63381 -5.80926 2.11745 
121 3 2 -4.90114 -9.19099 2.99852 
122 3 2 -5.7315 -7.67097 4.27798 
123 3 2 -4.36249 -9.5516 4.45027 
124 3 2 -0.786903 -7.77951 6.72084 
125 3 2 -1.88774 -9.57259 5.89068 
104 2 2 -0.293773 -1.83213 0.715118 
26 3 1 -2.58864 -7.59534 6.60397 
164 6 2 -1.97078 -4.44029 6.49846 
67 8 1 -4.65246 8.68469 6.41022 
27 3 1 -2.14077 -7.24194 7.98378 
55 7 1 -2.83641 -4.64619 8.48126 
56 7 1 -2.94226 -6.08176 8.19733 
57 7 1 -2.72519 -6.36337 9.72258 
59 7 1 -3.42791 -7.72977 10.4053 
60 7 1 -3.77085 -8.09553 11.8895 
61 7 1 -1.61631 -8.51364 12.6778 
62 7 1 -2.78173 -7.73033 13.1596 
63 7 1 -2.85172 -8.25168 14.5727 
206 8 2 -2.59021 7.17259 11.4275 
126 3 2 -1.10821 -8.7886 7.68504 
214 8 2 -0.784546 7.97514 8.77918 
211 8 2 -4.89554 9.00896 7.39529 
71 8 1 -2.45069 7.74936 9.29647 
185 7 2 -5.12077 -7.86467 11.7056 
116 3 2 -3.19057 -7.62653 8.35484 
117 3 2 -0.927035 -7.46784 8.42323 
193 7 2 -3.88712 -8.82253 9.15054 
165 6 2 -0.297512 -4.27696 7.66517 
181 7 2 -3.9525 -6.30986 8.1661 
182 7 2 -1.38011 -6.34202 9.42879 
183 7 2 -3.25678 -5.73606 10.5176 
184 7 2 -2.79699 -8.7381 10.2958 
186 7 2 -3.44705 -9.18064 12.1986 
187 7 2 -1.98833 -7.0057 13.5356 
188 7 2 -2.66408 -7.16678 14.9262 
189 7 2 -2.11582 -9.05861 14.9696 
190 7 2 -3.85002 -5.02947 8.96207 
191 7 2 -2.56835 -3.70026 7.71623 
192 7 2 -2.92801 -4.5543 9.6382 
194 7 2 -5.62038 -8.07394 10.1924 
195 7 2 -4.09609 -9.47459 10.6773 
196 7 2 -0.9317 -7.65117 12.7037 
197 7 2 -1.97989 -9.16762 11.7287 
198 7 2 -1.30181 -8.86316 13.7155 
58 7 1 -4.55649 -8.62205 10.025 
204 8 2 -3.24247 9.1268 7.79896 
205 8 2 -2.26311 8.82078 9.2004 
1 1 1 -0.859713 5.79035 1.73347 
2 1 1 -0.466291 4.38645 1.62883 
3 1 1 -1.57205 4.09539 2.73796 
4 1 1 -2.09358 1.67359 2.68406 
5 1 1 -1.51707 2.66363 3.57409 
6 1 1 -2.00034 1.81283 4.95955 
7 1 1 0.591507 1.24577 5.26914 
8 1 1 -0.629288 1.78418 6.01213 
28 4 1 -3.33336 7.04264 -1.49198 
29 4 1 -2.65606 6.87193 -0.117682 
30 4 1 -4.21893 7.22569 0.550533 
31 4 1 -5.46743 8.49631 2.10656 
32 4 1 -4.18095 7.66095 2.08912 
33 4 1 -2.91385 8.70691 2.52115 
34 4 1 -1.13234 8.33308 3.56745 
35 4 1 -2.70607 8.06111 3.94065 
36 4 1 -2.04488 7.0702 5.18875 
49 6 1 -1.54551 -0.899192 5.96227 
64 8 1 -3.49831 4.85406 4.49117 
65 8 1 -2.7629 5.70905 5.54059 
73 1 2 -1.09083 4.2275 0.774562 
74 1 2 -0.895102 5.08926 3.43324 
75 1 2 -2.68002 3.76435 2.65893 
76 1 2 -0.439568 2.11998 3.64669 
77 1 2 -3.02421 2.74281 4.88135 
78 1 2 -2.28226 0.727938 5.02488 
79 1 2 0.110338 2.68193 5.77294 
82 1 2 -1.93126 5.4239 1.16219 
83 1 2 -0.621633 6.48844 2.75579 
84 1 2 -0.875138 5.80366 0.581744 
85 1 2 -2.3232 0.837292 3.38783 
86 1 2 -2.48854 2.38007 1.74762 
87 1 2 -1.23984 0.934941 3.01006 
88 1 2 1.25946 1.72845 6.03684 
89 1 2 0.673282 1.1257 4.01357 
90 1 2 0.49403 0.35637 6.19244 
98 2 2 1.16354 -1.98603 6.27927 
95 2 2 0.227295 -1.2658 2.16093 
210 8 2 -2.86663 4.04827 4.13784 
201 8 2 -4.68002 4.99203 6.03866 
108 2 2 0.515526 -0.151283 3.15688 
127 4 2 -1.99587 6.00647 -0.452277 
128 4 2 -4.87171 8.15792 0.309376 
129 4 2 -4.40636 6.06773 -0.282815 
130 4 2 -4.23404 6.78637 2.66566 
96 2 2 -1.73697 -0.477432 1.96171 
200 8 2 -4.63316 7.11262 5.22588 
134 4 2 -1.23005 7.54079 5.97188 
135 4 2 -3.07419 7.47984 5.36494 
136 4 2 -3.82598 6.15632 -1.91951 
137 4 2 -3.84426 8.13887 -1.17107 
138 4 2 -2.48359 6.56751 -1.99192 
139 4 2 -5.8351 7.687 1.46661 
209 8 2 -4.25675 5.87684 3.93917 
141 4 2 -5.13749 9.19734 1.32993 
208 8 2 -3.8128 3.99552 5.15187 
144 4 2 -0.900399 7.93699 2.53082 
106 2 2 -0.383859 -0.0385861 3.95253 
176 6 2 -1.76447 -1.8663 5.07196 
143 4 2 -0.533648 8.14349 4.72092 
199 8 2 -2.19662 4.74851 5.79667 
131 4 2 -1.91876 8.86696 1.98909 
142 4 2 -1.0672 9.32875 3.09885 
16 2 1 0.330782 -0.730778 4.08988 
66 8 1 -4.29544 6.29422 5.97811 
107 2 2 1.33996 -1.02788 5.04395 
15 2 1 -0.850551 -1.4856 2.50832 
177 6 2 -0.951385 -0.0572577 5.62001 
175 6 2 -2.03824 0.0388305 6.32019 
213 8 2 -5.49338 7.95208 6.23236 
133 4 2 -3.81508 8.33912 3.83901 
140 4 2 -5.31483 8.67883 3.4159 
105 2 2 -2.26455 -0.761785 0.429749 
9 1 1 0.010598 1.82476 7.43482 
37 5 1 -0.686919 4.61133 7.91502 
38 5 1 -0.249001 3.24791 7.62182 
39 5 1 -0.506052 2.9151 9.16019 
40 5 1 -2.30501 1.84971 10.7044 
41 5 1 -0.877214 1.54102 10.256 
42 5 1 -0.723608 1.44952 11.9958 
43 5 1 0.489398 -0.468807 13.1141 
44 5 1 0.279848 0.961901 13.3428 
45 5 1 0.307084 1.25627 14.9577 
50 6 1 -1.22567 -2.38136 7.08418 
51 6 1 -0.0989459 -1.2106 7.8262 
52 6 1 1.20669 -0.0542493 9.40314 
53 6 1 0.0743689 -1.21692 9.35815 
54 6 1 0.822613 -1.90328 10.664 
68 8 1 -4.04436 7.44546 7.02578 
80 1 2 -1.12813 1.68058 7.81712 
81 1 2 1.16321 1.21381 7.66665 
145 5 2 -1.2892 3.07911 7.35315 
146 5 2 0.400484 3.8265 9.24462 
147 5 2 -1.5315 3.21638 9.62182 
148 5 2 -1.54837 0.490692 10.0239 
149 5 2 -1.24389 2.65171 12.1291 
150 5 2 -1.24194 0.436468 12.4027 
151 5 2 1.39278 0.994327 13.5315 
152 5 2 1.1568 2.08188 14.6043 
153 5 2 0.374222 0.528668 15.8719 
154 5 2 -1.72407 4.12511 8.31413 
155 5 2 0.00655085 5.49327 8.53395 
156 5 2 -1.14737 4.5074 6.85444 
157 5 2 -2.29628 0.819436 11.3701 
158 5 2 -2.34487 3.0449 10.8965 
159 5 2 -2.89713 1.15128 10.0573 
160 5 2 1.53055 -0.0886228 12.5095 
161 5 2 -0.382104 -0.928294 12.4593 
162 5 2 0.894393 -0.4003 14.2022 
166 6 2 -1.40155 -2.85318 8.1153 
167 6 2 0.972701 -0.979872 7.50815 
168 6 2 -1.19952 -0.534916 7.67746 
169 6 2 -0.943889 -0.737673 9.22975 
170 6 2 0.152467 -2.02865 11.5573 
171 6 2 1.72599 -2.51421 10.393 
179 6 2 1.45374 -0.00598564 10.8206 
180 6 2 1.74127 -0.0301006 8.43554 
202 8 2 -4.97107 7.42688 7.61939 
207 8 2 -3.40724 5.96559 10.0303 
178 6 2 0.567345 0.695414 8.94304 
216 8 2 -1.09889 6.48766 8.48 
203 8 2 -1.45079 7.56293 7.4766 
69 8 1 -2.54599 7.94157 7.78172 
215 8 2 -1.24986 6.91713 10.7489 
70 8 1 -1.0814 7.07848 9.36803 
72 8 1 -3.21123 7.00807 10.5031 
ITEM: TIMESTEP
300
ITEM: NUMBER OF ATOMS
216
ITEM: BOX BOUNDS xy xz yz pp pp pp
-7.3986809999999998e+00 7.1719499644999996e+00 0.0000000000000000e+00
-1.6563260794759998e+01 1.1064057999999999e+01 3.2951249644999998e+00
-2.8426993342800002e+00 1.6284213020399999e+01 -5.4992027947600004e+00
ITEM: ATOMS id mol type xu yu zu 
10 2 1 -0.942649 -3.15363 -0.659196 
11 2 1 -0.125605 -3.61742 0.592528 
12 2 1 -1.48109 -3.55731 1.57656 
13 2 1 -1.21447 -1.08707 0.957847 
14 2 1 -1.48263 -2.18273 2.1185 
172 6 2 -0.352973 -3.68304 3.7384 
164 6 2 -2.2861 -4.29791 6.71659 
17 2 1 -0.114389 -2.02325 4.35287 
18 2 1 0.435978 -2.6615 5.87939 
19 3 1 -4.02954 -4.38139 2.01627 
20 3 1 -3.57838 -5.82203 1.82891 
21 3 1 -3.83435 -6.11638 3.36568 
22 3 1 -4.7529 -8.44643 4.35327 
23 3 1 -3.57326 -7.56422 4.08418 
24 3 1 -3.32807 -7.66476 5.70987 
25 3 1 -1.02659 -7.39489 6.2281 
97 2 2 -1.239 -2.28617 3.9047 
46 6 1 -0.851859 -4.12752 4.5974 
47 6 1 -0.0408215 -4.27953 5.92259 
26 3 1 -2.28612 -6.85832 6.74492 
91 2 2 0.414472 -2.65389 0.127356 
92 2 2 -2.4727 -3.35606 0.998754 
93 2 2 -1.04295 -4.41666 2.59761 
94 2 2 -2.36665 -2.3484 2.7826 
174 6 2 -0.511018 -5.03765 4.03293 
173 6 2 -2.13294 -4.07939 5.09274 
100 2 2 -0.928971 -2.0215 -0.702385 
101 2 2 -1.85758 -3.94793 -0.311023 
102 2 2 -0.0447596 -3.21908 -1.2848 
103 2 2 -1.91888 -1.68763 0.311228 
114 3 2 -2.70146 -8.58641 5.91803 
212 8 2 -3.7557 8.87502 5.29696 
115 3 2 -1.93233 -5.81643 6.58492 
109 3 2 -4.53517 -5.80564 1.31995 
110 3 2 -3.31112 -5.08265 3.7574 
111 3 2 -4.97462 -6.26028 3.69386 
112 3 2 -3.19555 -8.54601 3.65487 
113 3 2 -4.63966 -7.46639 5.97919 
163 6 2 0.321206 -5.32762 5.4 
99 2 2 -0.716751 -2.57868 5.76754 
118 3 2 -4.95922 -4.41801 1.28313 
119 3 2 -3.30373 -3.40666 2.2731 
120 3 2 -5.06722 -5.07333 2.53949 
121 3 2 -4.58912 -9.06792 3.43603 
122 3 2 -5.50641 -7.47357 4.5951 
123 3 2 -3.87409 -9.1828 4.86605 
124 3 2 -0.514797 -6.36555 6.28493 
125 3 2 -1.30128 -8.24704 5.38664 
104 2 2 0.210514 -1.40123 1.23516 
27 3 1 -1.60793 -6.90646 8.08203 
55 7 1 -2.87397 -4.52045 8.74882 
56 7 1 -2.49535 -5.92127 8.60678 
57 7 1 -2.04536 -6.2056 10.0305 
59 7 1 -2.80456 -7.55593 10.6993 
60 7 1 -3.60413 -7.54292 12 
61 7 1 -2.2035 -8.83286 13.4379 
62 7 1 -2.8025 -7.48057 13.4854 
63 7 1 -3.18851 -7.63386 14.9557 
205 8 2 -2.75101 8.01262 9.16314 
126 3 2 -0.15978 -7.41382 6.956 
214 8 2 -1.10692 7.8347 8.83578 
211 8 2 -4.98784 8.44724 7.1385 
204 8 2 -3.45126 8.491 7.76805 
185 7 2 -4.64959 -6.79365 11.4258 
116 3 2 -2.39794 -7.55778 8.58629 
117 3 2 -0.318021 -6.96881 8.37494 
193 7 2 -3.30768 -8.59346 9.40136 
165 6 2 -0.532219 -4.13278 7.92056 
181 7 2 -3.47026 -6.36799 8.68633 
182 7 2 -0.779631 -6.28353 9.664 
183 7 2 -2.48001 -5.48238 10.8215 
184 7 2 -2.54205 -8.72389 10.7468 
186 7 2 -3.85216 -8.63722 12.3566 
187 7 2 -1.84253 -7.03236 13.8813 
188 7 2 -2.65869 -6.62223 15.116 
189 7 2 -2.82705 -8.49799 15.6505 
190 7 2 -3.49965 -5.08993 9.62041 
191 7 2 -3.0383 -3.63821 7.87494 
192 7 2 -2.35796 -4.41476 9.75389 
194 7 2 -4.69164 -7.04166 9.77723 
195 7 2 -4.11424 -8.87682 10.8011 
196 7 2 -1.31565 -8.43754 13.964 
197 7 2 -2.45814 -9.29672 12.3672 
198 7 2 -2.43413 -9.2995 14.4583 
58 7 1 -4.05748 -8.02721 10.0332 
48 6 1 -1.26045 -3.88824 6.94849 
1 1 1 -0.831812 5.81741 1.04333 
2 1 1 -0.0667717 4.5754 1.11792 
3 1 1 -1.02924 4.08784 2.31823 
4 1 1 -1.22132 1.61086 2.68371 
5 1 1 -0.977269 2.78649 3.50108 
6 1 1 -1.79888 2.11413 4.91752 
7 1 1 0.692274 1.5183 5.84177 
8 1 1 -0.671406 2.14367 6.17917 
28 4 1 -3.1263 6.53767 -2.07578 
29 4 1 -2.27004 6.84354 -0.825916 
30 4 1 -3.79108 6.83402 0.129646 
31 4 1 -5.1568 8.11979 1.43415 
32 4 1 -3.72057 7.49067 1.53375 
33 4 1 -2.85465 8.73133 2.16117 
34 4 1 -1.04189 8.42691 3.30123 
35 4 1 -2.58218 8.10116 3.67227 
36 4 1 -1.91123 7.08127 4.84441 
49 6 1 -1.80598 -0.630759 6.236 
64 8 1 -3.14412 4.73058 3.81501 
65 8 1 -2.53044 5.58111 4.95627 
73 1 2 -0.523581 4.32827 0.158958 
74 1 2 -0.726481 5.25714 2.82557 
75 1 2 -2.00923 3.40603 2.20228 
76 1 2 0.010016 2.32242 3.88362 
77 1 2 -2.81703 2.81473 4.46872 
78 1 2 -2.02591 1.01143 5.15116 
79 1 2 -0.100032 3.06603 6.46465 
82 1 2 -1.72424 5.20611 0.512692 
83 1 2 -0.876852 6.61915 2.05462 
84 1 2 -0.676837 5.85032 -0.0955985 
85 1 2 -1.35834 0.852536 3.68495 
86 1 2 -1.67652 1.46117 1.50093 
87 1 2 -0.343286 0.970934 3.26523 
88 1 2 1.09277 2.10678 6.74987 
89 1 2 1.01345 1.25445 4.67116 
90 1 2 0.384427 0.600533 6.70511 
98 2 2 0.832058 -1.89222 6.88543 
95 2 2 0.724687 -1.16159 2.78432 
210 8 2 -2.6359 3.88029 3.42209 
201 8 2 -4.56128 4.85898 5.14212 
108 2 2 0.920655 0.00966911 3.79362 
127 4 2 -1.58243 6.07684 -1.36772 
128 4 2 -4.78025 7.41714 -0.300827 
129 4 2 -3.35411 5.60568 0.123498 
130 4 2 -3.48381 6.53323 1.91668 
96 2 2 -1.26082 -0.462833 2.72392 
200 8 2 -4.37813 7.09397 4.71219 
134 4 2 -1.10631 7.47921 5.72529 
135 4 2 -2.89258 7.49953 5.12852 
136 4 2 -2.88272 5.51033 -2.42732 
137 4 2 -4.17954 7.09213 -1.76758 
138 4 2 -2.26018 6.74612 -2.74779 
139 4 2 -5.59605 7.25092 0.935387 
209 8 2 -3.67181 5.68966 3.16255 
141 4 2 -4.85404 8.70404 0.544298 
208 8 2 -3.78709 3.92848 4.24671 
144 4 2 -0.824313 8.10604 2.23915 
106 2 2 -0.0722607 0.109115 4.61244 
176 6 2 -1.80992 -1.60589 5.22489 
143 4 2 -0.396768 8.12677 4.40406 
199 8 2 -1.94136 4.76523 5.63638 
131 4 2 -1.83202 9.06461 1.76081 
142 4 2 -1.07265 9.47018 2.93685 
16 2 1 0.682667 -0.646001 4.64125 
66 8 1 -4.08845 6.13497 5.34833 
107 2 2 1.37934 -1.02674 5.76056 
15 2 1 -0.359285 -1.41828 2.99623 
177 6 2 -1.08375 0.22872 6.05598 
175 6 2 -2.34296 0.322762 6.47133 
213 8 2 -5.39857 7.53342 5.8072 
133 4 2 -3.73889 8.19671 3.4908 
140 4 2 -5.10652 8.38427 2.72802 
105 2 2 -1.68918 -0.0398181 1.19222 
132 4 2 -3.87521 9.48477 1.60584 
67 8 1 -4.62488 8.25639 6.16991 
68 8 1 -3.97298 6.97827 6.67367 
9 1 1 -0.498718 1.93451 7.70471 
37 5 1 -1.60675 4.13435 8.05528 
38 5 1 -1.62265 2.74215 8.08022 
39 5 1 -1.71115 2.45658 9.54923 
40 5 1 -3.2872 0.703734 10.7151 
41 5 1 -1.86249 0.868783 10.3759 
42 5 1 -1.52731 0.641415 12.0138 
43 5 1 0.392911 -0.90536 12.9658 
44 5 1 -0.0812116 0.50457 12.972 
45 5 1 0.23091 0.892476 14.5022 
50 6 1 -1.76992 -2.26974 7.26052 
51 6 1 -0.67436 -1.13426 8.0961 
52 6 1 0.406401 -0.138895 9.71153 
53 6 1 -0.382273 -1.53085 9.51956 
54 6 1 0.482456 -2.26117 10.6802 
71 8 1 -2.52258 6.93786 8.9676 
80 1 2 -1.50197 1.31578 7.3395 
81 1 2 0.653691 1.4263 8.25806 
145 5 2 -2.26521 2.65496 7.27824 
146 5 2 -0.600377 3.18276 9.33715 
147 5 2 -2.48874 2.94802 10.3473 
148 5 2 -2.08508 -0.324078 10.095 
149 5 2 -2.43742 1.52398 12.2873 
150 5 2 -1.54795 -0.471308 12.3317 
151 5 2 1.02247 0.813378 12.8946 
152 5 2 0.574329 1.89427 13.8755 
153 5 2 0.88657 0.227427 15.2693 
154 5 2 -2.71233 4.11947 7.66403 
155 5 2 -0.943984 4.82952 8.87956 
156 5 2 -1.44543 4.04499 6.91377 
157 5 2 -2.93225 -0.356246 11.3719 
158 5 2 -3.4467 1.90366 10.9802 
159 5 2 -3.45942 0.0635596 9.77835 